ITEM: TIMESTEP
0
ITEM: NUMBER OF ATOMS
18
ITEM: BOX BOUNDS pp pp pp
0.0000000000000000e+00 8.3365502156509255e+00
0.0000000000000000e+00 8.3365502156509255e+00
-1.3894250359418210e+00 1.3894250359418210e+00
ITEM: ATOMS id type x y z mux muy
1 1 0 0 0 0.0100147 0.749933
2 1 1.38943 1.38943 0 -0.714908 0.226729
3 1 2.77885 0 0 0.583586 -0.471091
4 1 4.16828 1.38943 0 0.375237 -0.649382
5 1 5.5577 0 0 -0.639791 0.391367
6 1 6.94713 1.38943 0 0.0462628 0.748572
7 1 0 2.77885 0 -0.713731 -0.230408
9 1 2.77885 2.77885 0 0.527075 0.533565
11 1 5.5577 2.77885 0 -0.407928 -0.629361
8 1 1.38943 4.16828 0 -0.259855 -0.703545
10 1 4.16828 4.16828 0 0.372095 0.651188
12 1 6.94713 4.16828 0 -0.186396 0.726469
13 1 0 5.5577 0 -0.427552 0.616198
15 1 2.77885 5.5577 0 0.591879 0.460629
17 1 5.5577 5.5577 0 0.458677 0.593393
14 1 1.38943 6.94713 0 0.398528 0.635354
16 1 4.16828 6.94713 0 0.444886 0.603802
18 1 6.94713 6.94713 0 0.624658 -0.415093
ITEM: TIMESTEP
5
ITEM: NUMBER OF ATOMS
18
ITEM: BOX BOUNDS pp pp pp
0.0000000000000000e+00 8.3365502156509255e+00
0.0000000000000000e+00 8.3365502156509255e+00
-1.3894250359418210e+00 1.3894250359418210e+00
ITEM: ATOMS id type x y z mux muy
1 1 -5.7464e-07 -6.27546e-07 0 0.0100096 0.749933
2 1 1.38943 1.38943 0 -0.714907 0.226734
3 1 2.77885 -1.34506e-06 0 0.583587 -0.47109
4 1 4.16828 1.38943 0 0.375233 -0.649385
5 1 5.5577 8.36324e-08 0 -0.639788 0.39137
6 1 6.94713 1.38943 0 0.0462611 0.748572
7 1 5.8676e-07 2.77885 0 -0.713732 -0.230404
9 1 2.77885 2.77885 0 0.52708 0.533561
11 1 5.5577 2.77885 0 -0.407931 -0.629359
8 1 1.38942 4.16827 0 -0.259858 -0.703544
10 1 4.16828 4.16827 0 0.372098 0.651186
12 1 6.94713 4.16827 0 -0.186398 0.726468
13 1 3.63205e-07 5.5577 0 -0.427546 0.616202
15 1 2.77885 5.5577 0 0.591878 0.46063
17 1 5.5577 5.5577 0 0.458673 0.593396
14 1 1.38942 6.94713 0 0.398526 0.635356
16 1 4.16827 6.94712 0 0.444889 0.603799
18 1 6.94713 6.94713 0 0.624662 -0.415087
ITEM: TIMESTEP
10
ITEM: NUMBER OF ATOMS
18
ITEM: BOX BOUNDS pp pp pp
0.0000000000000000e+00 8.3365502156509255e+00
0.0000000000000000e+00 8.3365502156509255e+00
-1.3894250359418210e+00 1.3894250359418210e+00
ITEM: ATOMS id type x y z mux muy
1 1 -2.29857e-06 -2.51018e-06 0 0.0099945 0.749933
2 1 1.38943 1.38943 0 -0.714902 0.226749
3 1 2.77885 -5.38027e-06 0 0.583591 -0.471085
4 1 4.16828 1.38943 0 0.375218 -0.649393
5 1 5.5577 3.34533e-07 0 -0.639782 0.391381
6 1 6.94713 1.38943 0 0.046256 0.748572
7 1 2.34704e-06 2.77885 0 -0.713737 -0.23039
9 1 2.77885 2.77885 0 0.527094 0.533546
11 1 5.5577 2.77885 0 -0.40794 -0.629353
8 1 1.38942 4.16827 0 -0.259868 -0.70354
10 1 4.16828 4.16827 0 0.372106 0.651181
12 1 6.94713 4.16827 0 -0.186407 0.726466
13 1 1.45283e-06 5.5577 0 -0.427527 0.616215
15 1 2.77885 5.5577 0 0.591875 0.460634
17 1 5.5577 5.5577 0 0.458662 0.593405
14 1 1.38942 6.94713 0 0.39852 0.63536
16 1 4.16827 6.94712 0 0.4449 0.603791
18 1 6.94713 6.94712 0 0.624674 -0.41507
ITEM: TIMESTEP
15
ITEM: NUMBER OF ATOMS
18
ITEM: BOX BOUNDS pp pp pp
0.0000000000000000e+00 8.3365502156509255e+00
0.0000000000000000e+00 8.3365502156509255e+00
-1.3894250359418210e+00 1.3894250359418210e+00
ITEM: ATOMS id type x y z mux muy
1 1 -5.17182e-06 -5.64792e-06 0 0.00996927 0.749934
2 1 1.38943 1.38943 0 -0.714894 0.226773
3 1 2.77885 -1.21057e-05 0 0.583598 -0.471077
4 1 4.16828 1.38943 0 0.375194 -0.649407
5 1 5.5577 7.5271e-07 0 -0.639772 0.391398
6 1 6.94713 1.38943 0 0.0462475 0.748573
7 1 5.28084e-06 2.77886 0 -0.713744 -0.230368
9 1 2.77885 2.77886 0 0.527119 0.533522
11 1 5.55769 2.77885 0 -0.407956 -0.629342
8 1 1.38942 4.16827 0 -0.259883 -0.703534
10 1 4.16828 4.16827 0 0.372119 0.651174
12 1 6.94713 4.16827 0 -0.186421 0.726462
13 1 3.2689e-06 5.5577 0 -0.427496 0.616236
15 1 2.77886 5.55771 0 0.59187 0.460641
17 1 5.5577 5.5577 0 0.458644 0.593418
14 1 1.38942 6.94713 0 0.39851 0.635366
16 1 4.16827 6.94712 0 0.444919 0.603778
18 1 6.94713 6.94712 0 0.624693 -0.415041
ITEM: TIMESTEP
20
ITEM: NUMBER OF ATOMS
18
ITEM: BOX BOUNDS pp pp pp
0.0000000000000000e+00 8.3365502156509255e+00
0.0000000000000000e+00 8.3365502156509255e+00
-1.3894250359418210e+00 1.3894250359418210e+00
ITEM: ATOMS id type x y z mux muy
1 1 -9.19446e-06 -1.00407e-05 0 0.00993394 0.749934
2 1 1.38943 1.38944 0 -0.714884 0.226807
3 1 2.77885 -2.15215e-05 0 0.583607 -0.471066
4 1 4.16828 1.38944 0 0.375159 -0.649427
5 1 5.5577 1.33818e-06 0 -0.639757 0.391422
6 1 6.94713 1.38943 0 0.0462356 0.748573
7 1 9.38817e-06 2.77886 0 -0.713754 -0.230336
9 1 2.77885 2.77886 0 0.527153 0.533489
11 1 5.55768 2.77885 0 -0.407978 -0.629328
8 1 1.38942 4.16826 0 -0.259905 -0.703526
10 1 4.16828 4.16826 0 0.372139 0.651163
12 1 6.94713 4.16826 0 -0.18644 0.726457
13 1 5.81146e-06 5.55769 0 -0.427453 0.616266
15 1 2.77887 5.55771 0 0.591862 0.460651
17 1 5.55769 5.5577 0 0.458619 0.593438
14 1 1.38941 6.94713 0 0.398496 0.635375
16 1 4.16827 6.94712 0 0.444944 0.603759
18 1 6.94713 6.94712 0 0.62472 -0.415
ITEM: TIMESTEP
25
ITEM: NUMBER OF ATOMS
18
ITEM: BOX BOUNDS pp pp pp
0.0000000000000000e+00 8.3365502156509255e+00
0.0000000000000000e+00 8.3365502156509255e+00
-1.3894250359418210e+00 1.3894250359418210e+00
ITEM: ATOMS id type x y z mux muy
1 1 -1.43666e-05 -1.56887e-05 0 0.00988852 0.749935
2 1 1.38943 1.38945 0 -0.71487 0.22685
3 1 2.77885 -3.36277e-05 0 0.583619 -0.471051
4 1 4.16828 1.38945 0 0.375116 -0.649452
5 1 5.5577 2.09096e-06 0 -0.639738 0.391453
6 1 6.94713 1.38944 0 0.0462204 0.748574
7 1 1.4669e-05 2.77887 0 -0.713767 -0.230296
9 1 2.77886 2.77887 0 0.527196 0.533445
11 1 5.55768 2.77886 0 -0.408007 -0.62931
8 1 1.38941 4.16825 0 -0.259933 -0.703516
10 1 4.16828 4.16826 0 0.372163 0.651149
12 1 6.94714 4.16825 0 -0.186466 0.726451
13 1 9.08059e-06 5.55769 0 -0.427398 0.616304
15 1 2.77888 5.55772 0 0.591852 0.460663
17 1 5.55769 5.5577 0 0.458587 0.593463
14 1 1.38941 6.94714 0 0.398477 0.635386
16 1 4.16827 6.94711 0 0.444977 0.603735
18 1 6.94713 6.94712 0 0.624755 -0.414948
ITEM: TIMESTEP
30
ITEM: NUMBER OF ATOMS
18
ITEM: BOX BOUNDS pp pp pp
0.0000000000000000e+00 8.3365502156509255e+00
0.0000000000000000e+00 8.3365502156509255e+00
-1.3894250359418210e+00 1.3894250359418210e+00
ITEM: ATOMS id type x y z mux muy
1 1 -2.06882e-05 -2.25917e-05 0 0.00983302 0.749936
2 1 1.38943 1.38946 0 -0.714853 0.226904
3 1 2.77885 -4.84247e-05 0 0.583633 -0.471033
4 1 4.16828 1.38946 0 0.375062 -0.649483
5 1 5.5577 3.01109e-06 0 -0.639714 0.391492
6 1 6.94713 1.38944 0 0.0462017 0.748576
7 1 2.11234e-05 2.77888 0 -0.713783 -0.230246
9 1 2.77886 2.77888 0 0.52725 0.533392
11 1 5.55767 2.77886 0 -0.408041 -0.629287
8 1 1.38941 4.16824 0 -0.259967 -0.703503
10 1 4.16829 4.16825 0 0.372193 0.651131
12 1 6.94714 4.16824 0 -0.186496 0.726443
13 1 1.30764e-05 5.55768 0 -0.42733 0.616351
15 1 2.77889 5.55773 0 0.591841 0.460679
17 1 5.55769 5.5577 0 0.458547 0.593493
14 1 1.3894 6.94714 0 0.398455 0.6354
16 1 4.16827 6.94711 0 0.445017 0.603705
18 1 6.94713 6.94712 0 0.624797 -0.414884
ITEM: TIMESTEP
35
ITEM: NUMBER OF ATOMS
18
ITEM: BOX BOUNDS pp pp pp
0.0000000000000000e+00 8.3365502156509255e+00
0.0000000000000000e+00 8.3365502156509255e+00
-1.3894250359418210e+00 1.3894250359418210e+00
ITEM: ATOMS id type x y z mux muy
1 1 -2.81595e-05 -3.07499e-05 0 0.00976742 0.749936
2 1 1.38943 1.38947 0 -0.714833 0.226967
3 1 2.77884 -6.59127e-05 0 0.58365 -0.471012
4 1 4.16829 1.38947 0 0.374998 -0.64952
5 1 5.5577 4.09859e-06 0 -0.639687 0.391537
6 1 6.94713 1.38945 0 0.0461796 0.748577
7 1 2.87514e-05 2.77889 0 -0.713802 -0.230187
9 1 2.77886 2.77889 0 0.527313 0.53333
11 1 5.55765 2.77886 0 -0.408082 -0.629261
8 1 1.3894 4.16822 0 -0.260007 -0.703489
10 1 4.16829 4.16824 0 0.372229 0.651111
12 1 6.94715 4.16822 0 -0.186533 0.726433
13 1 1.77989e-05 5.55768 0 -0.42725 0.616407
15 1 2.7789 5.55774 0 0.591827 0.460697
17 1 5.55768 5.5577 0 0.458501 0.593529
14 1 1.38939 6.94715 0 0.398428 0.635417
16 1 4.16826 6.9471 0 0.445065 0.60367
18 1 6.94713 6.94712 0 0.624847 -0.414808
ITEM: TIMESTEP
40
ITEM: NUMBER OF ATOMS
18
ITEM: BOX BOUNDS pp pp pp
0.0000000000000000e+00 8.3365502156509255e+00
0.0000000000000000e+00 8.3365502156509255e+00
-1.3894250359418210e+00 1.3894250359418210e+00
ITEM: ATOMS id type x y z mux muy
1 1 -3.67807e-05 -4.01632e-05 0 0.00969173 0.749937
2 1 1.38943 1.38948 0 -0.71481 0.227039
3 1 2.77884 -8.6092e-05 0 0.58367 -0.470988
4 1 4.16829 1.38948 0 0.374925 -0.649562
5 1 5.5577 5.3535e-06 0 -0.639655 0.391589
6 1 6.94713 1.38946 0 0.0461542 0.748579
7 1 3.75529e-05 2.77891 0 -0.713824 -0.23012
9 1 2.77887 2.77891 0 0.527386 0.533258
11 1 5.55764 2.77886 0 -0.40813 -0.62923
8 1 1.3894 4.1682 0 -0.260054 -0.703471
10 1 4.1683 4.16823 0 0.37227 0.651088
12 1 6.94715 4.1682 0 -0.186575 0.726423
13 1 2.32482e-05 5.55767 0 -0.427158 0.616471
15 1 2.77892 5.55776 0 0.59181 0.460717
17 1 5.55768 5.5577 0 0.458447 0.593571
14 1 1.38938 6.94716 0 0.398398 0.635436
16 1 4.16826 6.9471 0 0.44512 0.603629
18 1 6.94713 6.94712 0 0.624905 -0.414721
ITEM: TIMESTEP
45
ITEM: NUMBER OF ATOMS
18
ITEM: BOX BOUNDS pp pp pp
0.0000000000000000e+00 8.3365502156509255e+00
0.0000000000000000e+00 8.3365502156509255e+00
-1.3894250359418210e+00 1.3894250359418210e+00
ITEM: ATOMS id type x y z mux muy
1 1 -4.65519e-05 -5.08316e-05 0 0.00960595 0.749938
2 1 1.38943 1.38949 0 -0.714784 0.227122
3 1 2.77884 -0.000108963 0 0.583692 -0.47096
4 1 4.16829 1.3895 0 0.374842 -0.64961
5 1 5.5577 6.77587e-06 0 -0.639619 0.391647
6 1 6.94713 1.38947 0 0.0461253 0.74858
7 1 4.75279e-05 2.77892 0 -0.713849 -0.230043
9 1 2.77887 2.77892 0 0.527469 0.533176
11 1 5.55762 2.77887 0 -0.408183 -0.629195
8 1 1.38939 4.16819 0 -0.260107 -0.703452
10 1 4.1683 4.16822 0 0.372317 0.651061
12 1 6.94716 4.16819 0 -0.186622 0.72641
13 1 2.94246e-05 5.55766 0 -0.427053 0.616543
15 1 2.77894 5.55777 0 0.591792 0.460741
17 1 5.55767 5.5577 0 0.458386 0.593618
14 1 1.38936 6.94717 0 0.398363 0.635458
16 1 4.16826 6.94709 0 0.445182 0.603583
18 1 6.94713 6.94712 0 0.624971 -0.414622
ITEM: TIMESTEP
50
ITEM: NUMBER OF ATOMS
18
ITEM: BOX BOUNDS pp pp pp
0.0000000000000000e+00 8.3365502156509255e+00
0.0000000000000000e+00 8.3365502156509255e+00
-1.3894250359418210e+00 1.3894250359418210e+00
ITEM: ATOMS id type x y z mux muy
1 1 -5.74732e-05 -6.27552e-05 0 0.00951008 0.74994
2 1 1.38943 1.38951 0 -0.714755 0.227214
3 1 2.77884 -0.000134526 0 0.583717 -0.47093
4 1 4.1683 1.38952 0 0.37475 -0.649664
5 1 5.55769 8.36575e-06 0 -0.639579 0.391713
6 1 6.94713 1.38948 0 0.0460931 0.748582
7 1 5.86766e-05 2.77894 0 -0.713877 -0.229957
9 1 2.77888 2.77894 0 0.527561 0.533085
11 1 5.55761 2.77887 0 -0.408243 -0.629156
8 1 1.38938 4.16816 0 -0.260166 -0.70343
10 1 4.16831 4.16821 0 0.372368 0.651031
12 1 6.94717 4.16816 0 -0.186676 0.726397
13 1 3.63282e-05 5.55765 0 -0.426936 0.616624
15 1 2.77896 5.55779 0 0.591771 0.460767
17 1 5.55767 5.5577 0 0.458318 0.593671
14 1 1.38935 6.94718 0 0.398324 0.635482
16 1 4.16825 6.94708 0 0.445252 0.603532
18 1 6.94713 6.94712 0 0.625044 -0.414512
ITEM: TIMESTEP
55
ITEM: NUMBER OF ATOMS
18
ITEM: BOX BOUNDS pp pp pp
0.0000000000000000e+00 8.3365502156509255e+00
0.0000000000000000e+00 8.3365502156509255e+00
-1.3894250359418210e+00 1.3894250359418210e+00
ITEM: ATOMS id type x y z mux muy
1 1 -6.95449e-05 -7.59339e-05 0 0.00940413 0.749941
2 1 1.38944 1.38953 0 -0.714722 0.227315
3 1 2.77883 -0.000162781 0 0.583744 -0.470896
4 1 4.1683 1.38953 0 0.374647 -0.649723
5 1 5.55769 1.01232e-05 0 -0.639534 0.391786
6 1 6.94713 1.38949 0 0.0460574 0.748584
7 1 7.09988e-05 2.77896 0 -0.713907 -0.229862
9 1 2.77888 2.77896 0 0.527663 0.532984
11 1 5.55759 2.77888 0 -0.40831 -0.629113
8 1 1.38937 4.16814 0 -0.260231 -0.703406
10 1 4.16832 4.1682 0 0.372426 0.650998
12 1 6.94718 4.16814 0 -0.186734 0.726382
13 1 4.39591e-05 5.55764 0 -0.426807 0.616714
15 1 2.77898 5.55781 0 0.591749 0.460796
17 1 5.55766 5.5577 0 0.458242 0.593729
14 1 1.38933 6.94719 0 0.398282 0.635509
16 1 4.16825 6.94707 0 0.445328 0.603475
18 1 6.94714 6.94712 0 0.625125 -0.414389
ITEM: TIMESTEP
60
ITEM: NUMBER OF ATOMS
18
ITEM: BOX BOUNDS pp pp pp
0.0000000000000000e+00 8.3365502156509255e+00
0.0000000000000000e+00 8.3365502156509255e+00
-1.3894250359418210e+00 1.3894250359418210e+00
ITEM: ATOMS id type x y z mux muy
1 1 -8.27673e-05 -9.03679e-05 0 0.00928809 0.749942
2 1 1.38944 1.38955 0 -0.714687 0.227427
3 1 2.77883 -0.00019373 0 0.583774 -0.470858
4 1 4.16831 1.38955 0 0.374535 -0.649787
5 1 5.55769 1.20483e-05 0 -0.639485 0.391866
6 1 6.94713 1.3895 0 0.0460184 0.748587
7 1 8.44947e-05 2.77898 0 -0.71394 -0.229759
9 1 2.77889 2.77898 0 0.527774 0.532873
11 1 5.55756 2.77888 0 -0.408382 -0.629066
8 1 1.38936 4.16812 0 -0.260302 -0.70338
10 1 4.16832 4.16818 0 0.372489 0.650962
12 1 6.94719 4.16812 0 -0.186799 0.726365
13 1 5.23175e-05 5.55763 0 -0.426665 0.616812
15 1 2.779 5.55783 0 0.591724 0.460828
17 1 5.55765 5.5577 0 0.45816 0.593793
14 1 1.38932 6.9472 0 0.398235 0.635538
16 1 4.16824 6.94706 0 0.445413 0.603413
18 1 6.94714 6.94712 0 0.625214 -0.414256
ITEM: TIMESTEP
65
ITEM: NUMBER OF ATOMS
18
ITEM: BOX BOUNDS pp pp pp
0.0000000000000000e+00 8.3365502156509255e+00
0.0000000000000000e+00 8.3365502156509255e+00
-1.3894250359418210e+00 1.3894250359418210e+00
ITEM: ATOMS id type x y z mux muy
1 1 -9.71406e-05 -0.000106057 0 0.00916196 0.749944
2 1 1.38944 1.38957 0 -0.714648 0.227548
3 1 2.77883 -0.000227372 0 0.583807 -0.470818
4 1 4.16831 1.38958 0 0.374413 -0.649858
5 1 5.55769 1.41411e-05 0 -0.639432 0.391952
6 1 6.94714 1.38951 0 0.045976 0.748589
7 1 9.91641e-05 2.779 0 -0.713977 -0.229646
9 1 2.77889 2.779 0 0.527896 0.532753
11 1 5.55754 2.77889 0 -0.408461 -0.629015
8 1 1.38935 4.16809 0 -0.26038 -0.703351
10 1 4.16833 4.16816 0 0.372557 0.650923
12 1 6.9472 4.16809 0 -0.186869 0.726347
13 1 6.14037e-05 5.55762 0 -0.426511 0.616918
15 1 2.77903 5.55785 0 0.591697 0.460863
17 1 5.55764 5.5577 0 0.45807 0.593862
14 1 1.3893 6.94722 0 0.398184 0.63557
16 1 4.16823 6.94705 0 0.445504 0.603346
18 1 6.94714 6.94712 0 0.62531 -0.41411
ITEM: TIMESTEP
70
ITEM: NUMBER OF ATOMS
18
ITEM: BOX BOUNDS pp pp pp
0.0000000000000000e+00 8.3365502156509255e+00
0.0000000000000000e+00 8.3365502156509255e+00
-1.3894250359418210e+00 1.3894250359418210e+00
ITEM: ATOMS id type x y z mux muy
1 1 -0.000112665 -0.000123001 0 0.00902576 0.749946
2 1 1.38944 1.38959 0 -0.714607 0.227678
3 1 2.77882 -0.000263708 0 0.583842 -0.470774
4 1 4.16832 1.3896 0 0.374281 -0.649934
5 1 5.55769 1.64016e-05 0 -0.639375 0.392046
6 1 6.94714 1.38953 0 0.0459302 0.748592
7 1 0.000115007 2.77903 0 -0.714016 -0.229524
9 1 2.7789 2.77903 0 0.528027 0.532623
11 1 5.55751 2.77889 0 -0.408546 -0.628959
8 1 1.38934 4.16806 0 -0.260464 -0.70332
10 1 4.16834 4.16815 0 0.372631 0.650881
12 1 6.94721 4.16806 0 -0.186944 0.726328
13 1 7.12179e-05 5.55761 0 -0.426345 0.617033
15 1 2.77906 5.55787 0 0.591668 0.460901
17 1 5.55763 5.5577 0 0.457973 0.593937
14 1 1.38928 6.94723 0 0.398129 0.635605
16 1 4.16823 6.94704 0 0.445603 0.603273
18 1 6.94714 6.94711 0 0.625414 -0.413953
ITEM: TIMESTEP
75
ITEM: NUMBER OF ATOMS
18
ITEM: BOX BOUNDS pp pp pp
0.0000000000000000e+00 8.3365502156509255e+00
0.0000000000000000e+00 8.3365502156509255e+00
-1.3894250359418210e+00 1.3894250359418210e+00
ITEM: ATOMS id type x y z mux muy
1 1 -0.000129341 -0.000141201 0 0.00887947 0.749947
2 1 1.38945 1.38962 0 -0.714562 0.227819
3 1 2.77882 -0.00030274 0 0.58388 -0.470727
4 1 4.16833 1.38963 0 0.374139 -0.650015
5 1 5.55769 1.88301e-05 0 -0.639313 0.392146
6 1 6.94714 1.38954 0 0.045881 0.748595
7 1 0.000132024 2.77905 0 -0.714058 -0.229393
9 1 2.77891 2.77905 0 0.528167 0.532484
11 1 5.55749 2.7789 0 -0.408638 -0.6289
8 1 1.38932 4.16803 0 -0.260553 -0.703287
10 1 4.16835 4.16813 0 0.37271 0.650836
12 1 6.94723 4.16803 0 -0.187026 0.726307
13 1 8.17603e-05 5.5576 0 -0.426166 0.617157
15 1 2.77909 5.5579 0 0.591636 0.460941
17 1 5.55762 5.5577 0 0.457869 0.594017
14 1 1.38926 6.94725 0 0.39807 0.635642
16 1 4.16822 6.94703 0 0.445709 0.603195
18 1 6.94714 6.94711 0 0.625526 -0.413785
ITEM: TIMESTEP
80
ITEM: NUMBER OF ATOMS
18
ITEM: BOX BOUNDS pp pp pp
0.0000000000000000e+00 8.3365502156509255e+00
0.0000000000000000e+00 8.3365502156509255e+00
-1.3894250359418210e+00 1.3894250359418210e+00
ITEM: ATOMS id type x y z mux muy
1 1 -0.000147169 -0.000160656 0 0.0087231 0.749949
2 1 1.38945 1.38965 0 -0.714514 0.227969
3 1 2.77881 -0.000344466 0 0.583921 -0.470677
4 1 4.16833 1.38966 0 0.373988 -0.650102
5 1 5.55769 2.14264e-05 0 -0.639247 0.392254
6 1 6.94714 1.38956 0 0.0458283 0.748599
7 1 0.000150214 2.77908 0 -0.714103 -0.229253
9 1 2.77892 2.77908 0 0.528318 0.532335
11 1 5.55746 2.77891 0 -0.408736 -0.628836
8 1 1.38931 4.16799 0 -0.26065 -0.703251
10 1 4.16836 4.16811 0 0.372795 0.650787
12 1 6.94724 4.16799 0 -0.187112 0.726284
13 1 9.30312e-05 5.55758 0 -0.425975 0.617289
15 1 2.77912 5.55793 0 0.591603 0.460984
17 1 5.55761 5.5577 0 0.457757 0.594103
14 1 1.38923 6.94726 0 0.398006 0.635681
16 1 4.16821 6.94702 0 0.445822 0.603111
18 1 6.94715 6.94711 0 0.625645 -0.413604
ITEM: TIMESTEP
85
ITEM: NUMBER OF ATOMS
18
ITEM: BOX BOUNDS pp pp pp
0.0000000000000000e+00 8.3365502156509255e+00
0.0000000000000000e+00 8.3365502156509255e+00
-1.3894250359418210e+00 1.3894250359418210e+00
ITEM: ATOMS id type x y z mux muy
1 1 -0.000166148 -0.000181366 0 0.00855665 0.749951
2 1 1.38945 1.38967 0 -0.714463 0.228129
3 1 2.77881 -0.000388889 0 0.583964 -0.470624
4 1 4.16834 1.38969 0 0.373827 -0.650195
5 1 5.55768 2.41908e-05 0 -0.639177 0.392368
6 1 6.94714 1.38957 0 0.0457723 0.748602
7 1 0.000169579 2.77911 0 -0.714151 -0.229104
9 1 2.77892 2.77911 0 0.528478 0.532176
11 1 5.55743 2.77891 0 -0.40884 -0.628769
8 1 1.38929 4.16796 0 -0.260752 -0.703213
10 1 4.16837 4.16809 0 0.372885 0.650736
12 1 6.94726 4.16795 0 -0.187205 0.726261
13 1 0.000105031 5.55757 0 -0.425771 0.617429
15 1 2.77915 5.55796 0 0.591567 0.46103
17 1 5.5576 5.5577 0 0.457639 0.594194
14 1 1.38921 6.94728 0 0.397939 0.635724
16 1 4.1682 6.947 0 0.445943 0.603022
18 1 6.94715 6.94711 0 0.625772 -0.413412
ITEM: TIMESTEP
90
ITEM: NUMBER OF ATOMS
18
ITEM: BOX BOUNDS pp pp pp
0.0000000000000000e+00 8.3365502156509255e+00
0.0000000000000000e+00 8.3365502156509255e+00
-1.3894250359418210e+00 1.3894250359418210e+00
ITEM: ATOMS id type x y z mux muy
1 1 -0.000186281 -0.000203331 0 0.00838013 0.749953
2 1 1.38945 1.3897 0 -0.714409 0.228298
3 1 2.77881 -0.000436009 0 0.584009 -0.470567
4 1 4.16835 1.38972 0 0.373656 -0.650293
5 1 5.55768 2.71234e-05 0 -0.639103 0.392489
6 1 6.94715 1.38959 0 0.045713 0.748606
7 1 0.000190117 2.77914 0 -0.714201 -0.228946
9 1 2.77893 2.77914 0 0.528647 0.532008
11 1 5.55739 2.77892 0 -0.40895 -0.628697
8 1 1.38928 4.16792 0 -0.26086 -0.703173
10 1 4.16838 4.16806 0 0.372981 0.650681
12 1 6.94727 4.16792 0 -0.187303 0.726235
13 1 0.00011776 5.55755 0 -0.425555 0.617578
15 1 2.77919 5.55799 0 0.591529 0.461078
17 1 5.55759 5.5577 0 0.457513 0.594291
14 1 1.38918 6.9473 0 0.397868 0.635768
16 1 4.16819 6.94699 0 0.446071 0.602927
18 1 6.94715 6.94711 0 0.625906 -0.413208
ITEM: TIMESTEP
95
ITEM: NUMBER OF ATOMS
18
ITEM: BOX BOUNDS pp pp pp
0.0000000000000000e+00 8.3365502156509255e+00
0.0000000000000000e+00 8.3365502156509255e+00
-1.3894250359418210e+00 1.3894250359418210e+00
ITEM: ATOMS id type x y z mux muy
1 1 -0.000207566 -0.000226552 0 0.00819353 0.749955
2 1 1.38946 1.38974 0 -0.714351 0.228478
3 1 2.7788 -0.000485827 0 0.584058 -0.470507
4 1 4.16836 1.38975 0 0.373475 -0.650397
5 1 5.55768 3.02242e-05 0 -0.639024 0.392617
6 1 6.94715 1.38961 0 0.0456502 0.748609
7 1 0.000211828 2.77918 0 -0.714255 -0.228779
9 1 2.77894 2.77917 0 0.528826 0.53183
11 1 5.55736 2.77893 0 -0.409067 -0.628621
8 1 1.38926 4.16788 0 -0.260975 -0.70313
10 1 4.16839 4.16804 0 0.373082 0.650623
12 1 6.94729 4.16788 0 -0.187406 0.726209
13 1 0.000131218 5.55753 0 -0.425327 0.617735
15 1 2.77923 5.55802 0 0.591489 0.461129
17 1 5.55757 5.5577 0 0.45738 0.594393
14 1 1.38915 6.94732 0 0.397792 0.635815
16 1 4.16819 6.94697 0 0.446206 0.602827
18 1 6.94715 6.9471 0 0.626049 -0.412993
ITEM: TIMESTEP
100
ITEM: NUMBER OF ATOMS
18
ITEM: BOX BOUNDS pp pp pp
0.0000000000000000e+00 8.3365502156509255e+00
0.0000000000000000e+00 8.3365502156509255e+00
-1.3894250359418210e+00 1.3894250359418210e+00
ITEM: ATOMS id type x y z mux muy
1 1 -0.000230005 -0.000251028 0 0.00799686 0.749957
2 1 1.38946 1.38977 0 -0.714291 0.228666
3 1 2.7788 -0.000538343 0 0.584108 -0.470444
4 1 4.16837 1.38979 0 0.373284 -0.650507
5 1 5.55768 3.34934e-05 0 -0.638941 0.392753
6 1 6.94715 1.38963 0 0.045584 0.748613
7 1 0.000234714 2.77921 0 -0.714311 -0.228603
9 1 2.77895 2.77921 0 0.529015 0.531642
11 1 5.55732 2.77894 0 -0.40919 -0.628541
8 1 1.38924 4.16783 0 -0.261096 -0.703085
10 1 4.16841 4.16801 0 0.373188 0.650562
12 1 6.94731 4.16783 0 -0.187515 0.72618
13 1 0.000145406 5.55752 0 -0.425086 0.617901
15 1 2.77927 5.55806 0 0.591447 0.461183
17 1 5.55756 5.5577 0 0.45724 0.594501
14 1 1.38912 6.94734 0 0.397713 0.635865
16 1 4.16818 6.94695 0 0.446348 0.602721
18 1 6.94716 6.9471 0 0.626198 -0.412766
ITEM: TIMESTEP
105
ITEM: NUMBER OF ATOMS
18
ITEM: BOX BOUNDS pp pp pp
0.0000000000000000e+00 8.3365502156509255e+00
0.0000000000000000e+00 8.3365502156509255e+00
-1.3894250359418210e+00 1.3894250359418210e+00
ITEM: ATOMS id type x y z mux muy
1 1 -0.000253597 -0.000276759 0 0.00779012 0.74996
2 1 1.38946 1.38981 0 -0.714227 0.228865
3 1 2.77879 -0.000593559 0 0.584162 -0.470378
4 1 4.16838 1.38982 0 0.373084 -0.650622
5 1 5.55768 3.6931e-05 0 -0.638854 0.392895
6 1 6.94715 1.38965 0 0.0455144 0.748618
7 1 0.000258773 2.77925 0 -0.71437 -0.228418
9 1 2.77896 2.77925 0 0.529214 0.531444
11 1 5.55728 2.77894 0 -0.409319 -0.628457
8 1 1.38922 4.16779 0 -0.261223 -0.703038
10 1 4.16842 4.16799 0 0.3733 0.650498
12 1 6.94733 4.16779 0 -0.18763 0.726151
13 1 0.000160324 5.5575 0 -0.424833 0.618075
15 1 2.77931 5.55809 0 0.591403 0.46124
17 1 5.55755 5.5577 0 0.457093 0.594614
14 1 1.38909 6.94736 0 0.397629 0.635918
16 1 4.16817 6.94694 0 0.446498 0.602611
18 1 6.94716 6.9471 0 0.626356 -0.412527
ITEM: TIMESTEP
110
ITEM: NUMBER OF ATOMS
18
ITEM: BOX BOUNDS pp pp pp
0.0000000000000000e+00 8.3365502156509255e+00
0.0000000000000000e+00 8.3365502156509255e+00
-1.3894250359418210e+00 1.3894250359418210e+00
ITEM: ATOMS id type x y z mux muy
1 1 -0.000278343 -0.000303746 0 0.00757331 0.749962
2 1 1.38947 1.38984 0 -0.714161 0.229073
3 1 2.77878 -0.000651476 0 0.584218 -0.470308
4 1 4.16839 1.38986 0 0.372874 -0.650742
5 1 5.55767 4.05372e-05 0 -0.638762 0.393044
6 1 6.94716 1.38967 0 0.0454414 0.748622
7 1 0.000284006 2.77929 0 -0.714432 -0.228224
9 1 2.77898 2.77928 0 0.529421 0.531237
11 1 5.55724 2.77895 0 -0.409455 -0.628368
8 1 1.38921 4.16774 0 -0.261356 -0.702989
10 1 4.16844 4.16796 0 0.373417 0.65043
12 1 6.94735 4.16774 0 -0.18775 0.72612
13 1 0.000175973 5.55748 0 -0.424567 0.618258
15 1 2.77936 5.55813 0 0.591356 0.4613
17 1 5.55753 5.55769 0 0.456938 0.594733
14 1 1.38906 6.94738 0 0.397541 0.635972
16 1 4.16816 6.94692 0 0.446655 0.602494
18 1 6.94716 6.9471 0 0.626521 -0.412277
ITEM: TIMESTEP
115
ITEM: NUMBER OF ATOMS
18
ITEM: BOX BOUNDS pp pp pp
0.0000000000000000e+00 8.3365502156509255e+00
0.0000000000000000e+00 8.3365502156509255e+00
-1.3894250359418210e+00 1.3894250359418210e+00
ITEM: ATOMS id type x y z mux muy
1 1 -0.000304245 -0.000331988 0 0.00734644 0.749964
2 1 1.38947 1.38988 0 -0.714091 0.229291
3 1 2.77878 -0.000712095 0 0.584276 -0.470235
4 1 4.1684 1.3899 0 0.372654 -0.650868
5 1 5.55767 4.43122e-05 0 -0.638666 0.3932
6 1 6.94716 1.3897 0 0.0453651 0.748627
7 1 0.000310413 2.77933 0 -0.714497 -0.228021
9 1 2.77899 2.77932 0 0.529639 0.53102
11 1 5.5572 2.77896 0 -0.409597 -0.628276
8 1 1.38919 4.16769 0 -0.261495 -0.702937
10 1 4.16845 4.16793 0 0.37354 0.65036
12 1 6.94737 4.16769 0 -0.187876 0.726087
13 1 0.000192353 5.55746 0 -0.424289 0.618448
15 1 2.77941 5.55817 0 0.591308 0.461362
17 1 5.55752 5.55769 0 0.456776 0.594857
14 1 1.38903 6.94741 0 0.397449 0.63603
16 1 4.16814 6.9469 0 0.446819 0.602372
18 1 6.94717 6.94709 0 0.626693 -0.412014
ITEM: TIMESTEP
120
ITEM: NUMBER OF ATOMS
18
ITEM: BOX BOUNDS pp pp pp
0.0000000000000000e+00 8.3365502156509255e+00
0.0000000000000000e+00 8.3365502156509255e+00
-1.3894250359418210e+00 1.3894250359418210e+00
ITEM: ATOMS id type x y z mux muy
1 1 -0.000331301 -0.000361486 0 0.0071095 0.749966
2 1 1.38948 1.38992 0 -0.714018 0.229519
3 1 2.77877 -0.000775416 0 0.584338 -0.470159
4 1 4.16841 1.38994 0 0.372424 -0.651
5 1 5.55767 4.8256e-05 0 -0.638566 0.393362
6 1 6.94716 1.38972 0 0.0452853 0.748632
7 1 0.000337994 2.77937 0 -0.714565 -0.227809
9 1 2.779 2.77937 0 0.529866 0.530794
11 1 5.55715 2.77897 0 -0.409745 -0.628179
8 1 1.38916 4.16764 0 -0.261641 -0.702883
10 1 4.16847 4.1679 0 0.373668 0.650286
12 1 6.94739 4.16764 0 -0.188008 0.726053
13 1 0.000209464 5.55743 0 -0.423999 0.618648
15 1 2.77946 5.55821 0 0.591257 0.461428
17 1 5.5575 5.55769 0 0.456608 0.594987
14 1 1.38899 6.94743 0 0.397353 0.63609
16 1 4.16813 6.94688 0 0.446991 0.602245
18 1 6.94717 6.94709 0 0.626873 -0.41174
ITEM: TIMESTEP
125
ITEM: NUMBER OF ATOMS
18
ITEM: BOX BOUNDS pp pp pp
0.0000000000000000e+00 8.3365502156509255e+00
0.0000000000000000e+00 8.3365502156509255e+00
-1.3894250359418210e+00 1.3894250359418210e+00
ITEM: ATOMS id type x y z mux muy
1 1 -0.000359513 -0.000392239 0 0.00686251 0.749969
2 1 1.38948 1.38997 0 -0.713941 0.229756
3 1 2.77876 -0.000841442 0 0.584401 -0.47008
4 1 4.16842 1.38999 0 0.372184 -0.651137
5 1 5.55767 5.23689e-05 0 -0.638461 0.393532
6 1 6.94717 1.38975 0 0.0452022 0.748637
7 1 0.000366749 2.77941 0 -0.714635 -0.227588
9 1 2.77901 2.77941 0 0.530103 0.530558
11 1 5.55711 2.77898 0 -0.409899 -0.628079
8 1 1.38914 4.16758 0 -0.261792 -0.702826
10 1 4.16848 4.16787 0 0.373802 0.65021
12 1 6.94741 4.16758 0 -0.188145 0.726018
13 1 0.000227306 5.55741 0 -0.423696 0.618855
15 1 2.77951 5.55826 0 0.591204 0.461495
17 1 5.55748 5.55769 0 0.456431 0.595122
14 1 1.38895 6.94746 0 0.397253 0.636152
16 1 4.16812 6.94686 0 0.44717 0.602112
18 1 6.94718 6.94709 0 0.627061 -0.411455
ITEM: TIMESTEP
130
ITEM: NUMBER OF ATOMS
18
ITEM: BOX BOUNDS pp pp pp
0.0000000000000000e+00 8.3365502156509255e+00
0.0000000000000000e+00 8.3365502156509255e+00
-1.3894250359418210e+00 1.3894250359418210e+00
ITEM: ATOMS id type x y z mux muy
1 1 -0.000388881 -0.000424248 0 0.00660546 0.749971
2 1 1.38949 1.39001 0 -0.713862 0.230003
3 1 2.77876 -0.000910172 0 0.584468 -0.469997
4 1 4.16843 1.39004 0 0.371934 -0.65128
5 1 5.55766 5.66509e-05 0 -0.638352 0.393709
6 1 6.94717 1.38977 0 0.0451156 0.748642
7 1 0.000396678 2.77946 0 -0.714709 -0.227358
9 1 2.77903 2.77946 0 0.530349 0.530312
11 1 5.55706 2.779 0 -0.41006 -0.627974
8 1 1.38912 4.16753 0 -0.26195 -0.702768
10 1 4.1685 4.16783 0 0.37394 0.65013
12 1 6.94743 4.16753 0 -0.188288 0.725981
13 1 0.000245881 5.55739 0 -0.42338 0.619071
15 1 2.77956 5.5583 0 0.591149 0.461566
17 1 5.55747 5.55769 0 0.456248 0.595263
14 1 1.38891 6.94749 0 0.397149 0.636217
16 1 4.16811 6.94684 0 0.447356 0.601974
18 1 6.94718 6.94709 0 0.627256 -0.411157
ITEM: TIMESTEP
135
ITEM: NUMBER OF ATOMS
18
ITEM: BOX BOUNDS pp pp pp
0.0000000000000000e+00 8.3365502156509255e+00
0.0000000000000000e+00 8.3365502156509255e+00
-1.3894250359418210e+00 1.3894250359418210e+00
ITEM: ATOMS id type x y z mux muy
1 1 -0.000419406 -0.000457512 0 0.00633835 0.749973
2 1 1.38949 1.39006 0 -0.713779 0.23026
3 1 2.77875 -0.000981609 0 0.584537 -0.469912
4 1 4.16844 1.39008 0 0.371674 -0.651428
5 1 5.55766 6.11022e-05 0 -0.638239 0.393893
6 1 6.94717 1.3898 0 0.0450257 0.748647
7 1 0.000427781 2.77951 0 -0.714785 -0.227118
9 1 2.77904 2.7795 0 0.530604 0.530056
11 1 5.55701 2.77901 0 -0.410227 -0.627865
8 1 1.38909 4.16747 0 -0.262114 -0.702706
10 1 4.16852 4.1678 0 0.374085 0.650047
12 1 6.94746 4.16747 0 -0.188436 0.725942
13 1 0.000265189 5.55736 0 -0.423052 0.619295
15 1 2.77962 5.55835 0 0.591091 0.46164
17 1 5.55745 5.55769 0 0.456058 0.595409
14 1 1.38887 6.94752 0 0.397041 0.636285
16 1 4.16809 6.94681 0 0.447549 0.60183
18 1 6.94718 6.94708 0 0.627458 -0.410848
ITEM: TIMESTEP
140
ITEM: NUMBER OF ATOMS
18
ITEM: BOX BOUNDS pp pp pp
0.0000000000000000e+00 8.3365502156509255e+00
0.0000000000000000e+00 8.3365502156509255e+00
-1.3894250359418210e+00 1.3894250359418210e+00
ITEM: ATOMS id type x y z mux muy
1 1 -0.000451089 -0.000492032 0 0.0060612 0.749976
2 1 1.3895 1.3901 0 -0.713693 0.230526
3 1 2.77874 -0.00105575 0 0.584608 -0.469823
4 1 4.16846 1.39013 0 0.371405 -0.651581
5 1 5.55766 6.57229e-05 0 -0.638121 0.394083
6 1 6.94718 1.38983 0 0.0449324 0.748653
7 1 0.000460058 2.77956 0 -0.714864 -0.22687
9 1 2.77905 2.77955 0 0.530869 0.52979
11 1 5.55696 2.77902 0 -0.4104 -0.627752
8 1 1.38907 4.16741 0 -0.262284 -0.702643
10 1 4.16854 4.16776 0 0.374234 0.649961
12 1 6.94748 4.16741 0 -0.18859 0.725902
13 1 0.00028523 5.55734 0 -0.422712 0.619528
15 1 2.77968 5.5584 0 0.591032 0.461716
17 1 5.55743 5.55769 0 0.45586 0.59556
14 1 1.38883 6.94755 0 0.396928 0.636355
16 1 4.16808 6.94679 0 0.44775 0.601681
18 1 6.94719 6.94708 0 0.627668 -0.410527
ITEM: TIMESTEP
145
ITEM: NUMBER OF ATOMS
18
ITEM: BOX BOUNDS pp pp pp
0.0000000000000000e+00 8.3365502156509255e+00
0.0000000000000000e+00 8.3365502156509255e+00
-1.3894250359418210e+00 1.3894250359418210e+00
ITEM: ATOMS id type x y z mux muy
1 1 -0.000483929 -0.000527808 0 0.005774 0.749978
2 1 1.3895 1.39015 0 -0.713604 0.230802
3 1 2.77873 -0.00113261 0 0.584682 -0.469731
4 1 4.16847 1.39018 0 0.371126 -0.651741
5 1 5.55766 7.05133e-05 0 -0.637999 0.394281
6 1 6.94718 1.38986 0 0.0448357 0.748659
7 1 0.000493509 2.77961 0 -0.714945 -0.226613
9 1 2.77907 2.7796 0 0.531144 0.529515
11 1 5.5569 2.77903 0 -0.410579 -0.627634
8 1 1.38904 4.16734 0 -0.26246 -0.702577
10 1 4.16855 4.16772 0 0.374389 0.649871
12 1 6.94751 4.16734 0 -0.188749 0.725861
13 1 0.000306005 5.55731 0 -0.422359 0.619769
15 1 2.77974 5.55845 0 0.59097 0.461795
17 1 5.55741 5.55769 0 0.455655 0.595717