ITEM: TIMESTEP
0
ITEM: NUMBER OF ATOMS
50
ITEM: BOX BOUNDS pp pp pp
0.0000000000000000e+00 1.1834526708278773e+01
0.0000000000000000e+00 1.1834526708278773e+01
-1.1834526708278772e+00 1.1834526708278772e+00
ITEM: ATOMS id type x y z mux muy
1 1 0 0 0 0.0100147 0.749933
2 1 1.18345 1.18345 0 -0.0231312 0.749643
3 1 2.36691 0 0 0.670465 -0.33612
4 1 3.55036 1.18345 0 0.275494 -0.697569
5 1 4.73381 0 0 0.724163 -0.19516
6 1 5.91726 1.18345 0 0.443727 0.604654
7 1 7.10072 0 0 -0.488133 0.569409
8 1 8.28417 1.18345 0 -0.476993 0.578773
9 1 9.46762 0 0 0.467238 -0.586676
10 1 10.6511 1.18345 0 -0.089284 -0.744667
11 1 0 2.36691 0 0.234252 -0.712479
13 1 2.36691 2.36691 0 -0.276004 -0.697368
15 1 4.73381 2.36691 0 0.600515 -0.449312
17 1 7.10072 2.36691 0 0.0862234 -0.745027
19 1 9.46762 2.36691 0 0.0558156 0.74792
12 1 1.18345 3.55036 0 -0.736778 -0.140208
14 1 3.55036 3.55036 0 0.188391 0.725954
16 1 5.91726 3.55036 0 -0.719965 0.21012
18 1 8.28417 3.55036 0 0.746665 -0.0706485
20 1 10.6511 3.55036 0 -0.50913 0.550714
21 1 0 4.73381 0 -0.522454 0.53809
22 1 1.18345 5.91726 0 -0.0751422 0.746226
23 1 2.36691 4.73381 0 0.446447 -0.602648
24 1 3.55036 5.91726 0 -0.561031 0.497739
25 1 4.73381 4.73381 0 -0.00784937 -0.749959
26 1 5.91726 5.91726 0 -0.742571 0.105301
27 1 7.10072 4.73381 0 -0.638893 0.39283
28 1 8.28417 5.91726 0 0.623094 -0.417438
29 1 9.46762 4.73381 0 0.613149 -0.431913
30 1 10.6511 5.91726 0 -0.687526 -0.299679
31 1 0 7.10072 0 0.745256 0.0842188
33 1 2.36691 7.10072 0 -0.0403084 -0.748916
35 1 4.73381 7.10072 0 0.6695 -0.338038
37 1 7.10072 7.10072 0 0.572 0.485094
39 1 9.46762 7.10072 0 -0.748527 0.0469816
32 1 1.18345 8.28417 0 -0.528796 -0.53186
34 1 3.55036 8.28417 0 -0.655988 -0.363565
36 1 5.91726 8.28417 0 0.0800117 0.74572
38 1 8.28417 8.28417 0 -0.153855 -0.734049
40 1 10.6511 8.28417 0 -0.58903 -0.464266
41 1 0 9.46762 0 0.58418 0.470355
43 1 2.36691 9.46762 0 -0.480955 0.575485
45 1 4.73381 9.46762 0 -0.031401 -0.749342
47 1 7.10072 9.46762 0 0.675469 0.325947
49 1 9.46762 9.46762 0 -0.744086 -0.0940013
42 1 1.18345 10.6511 0 0.392087 0.639349
44 1 3.55036 10.6511 0 -0.322506 0.677119
46 1 5.91726 10.6511 0 -0.651707 -0.371185
48 1 8.28417 10.6511 0 0.0305648 0.749377
50 1 10.6511 10.6511 0 0.36424 0.655614
ITEM: TIMESTEP
5
ITEM: NUMBER OF ATOMS
50
ITEM: BOX BOUNDS pp pp pp
0.0000000000000000e+00 1.1834526708278773e+01
0.0000000000000000e+00 1.1834526708278773e+01
-1.1834526708278772e+00 1.1834526708278772e+00
ITEM: ATOMS id type x y z mux muy
1 1 5.89325e-07 -6.9427e-08 0 0.0100263 0.749933
2 1 1.18345 1.18345 0 -0.023123 0.749643
3 1 2.36691 -5.69097e-07 0 0.670467 -0.336116
4 1 3.55036 1.18345 0 0.275499 -0.697567
5 1 4.73381 1.35901e-06 0 0.724164 -0.195157
6 1 5.91726 1.18345 0 0.443724 0.604656
7 1 7.10072 -1.87025e-06 0 -0.488139 0.569404
8 1 8.28417 1.18345 0 -0.476985 0.578779
9 1 9.46762 -2.67857e-06 0 0.467235 -0.586678
10 1 10.6511 1.18345 0 -0.0892999 -0.744665
11 1 -1.80954e-08 2.36691 0 0.23424 -0.712483
13 1 2.36691 2.36691 0 -0.275994 -0.697372
15 1 4.73381 2.36691 0 0.600509 -0.449321
17 1 7.10072 2.3669 0 0.0862273 -0.745027
19 1 9.46762 2.3669 0 0.055826 0.747919
12 1 1.18345 3.55036 0 -0.73678 -0.140199
14 1 3.55036 3.55036 0 0.18839 0.725954
16 1 5.91726 3.55036 0 -0.719965 0.210121
18 1 8.28417 3.55036 0 0.746666 -0.0706435
20 1 10.6511 3.55036 0 -0.509127 0.550718
21 1 7.54333e-07 4.73381 0 -0.522448 0.538097
22 1 1.18345 5.91726 0 -0.0751423 0.746226
23 1 2.36691 4.73381 0 0.446437 -0.602656
24 1 3.55036 5.91726 0 -0.561029 0.497742
25 1 4.73381 4.73381 0 -0.00785436 -0.749959
26 1 5.91726 5.91726 0 -0.74257 0.105306
27 1 7.10072 4.73381 0 -0.638894 0.39283
28 1 8.28417 5.91726 0 0.623086 -0.41745
29 1 9.46762 4.73381 0 0.613147 -0.431915
30 1 10.6511 5.91726 0 -0.687532 -0.299665
31 1 -1.18524e-06 7.10072 0 0.745256 0.0842196
33 1 2.36691 7.10072 0 -0.0403058 -0.748916
35 1 4.73381 7.10072 0 0.669503 -0.338033
37 1 7.10071 7.10072 0 0.572001 0.485093
39 1 9.46762 7.10072 0 -0.748527 0.0469809
32 1 1.18345 8.28417 0 -0.528797 -0.531859
34 1 3.55036 8.28417 0 -0.65599 -0.363561
36 1 5.91726 8.28417 0 0.0800158 0.745719
38 1 8.28417 8.28417 0 -0.153858 -0.734049
40 1 10.6511 8.28417 0 -0.589031 -0.464265
41 1 2.72653e-06 9.46762 0 0.584177 0.470359
43 1 2.36691 9.46762 0 -0.480959 0.575481
45 1 4.73381 9.46762 0 -0.0314171 -0.749342
47 1 7.10072 9.46762 0 0.675468 0.32595
49 1 9.46762 9.46762 0 -0.744086 -0.0939992
42 1 1.18345 10.6511 0 0.392079 0.639354
44 1 3.55036 10.6511 0 -0.322501 0.677121
46 1 5.91726 10.6511 0 -0.651703 -0.371192
48 1 8.28417 10.6511 0 0.0305601 0.749377
50 1 10.6511 10.6511 0 0.364251 0.655607
ITEM: TIMESTEP
10
ITEM: NUMBER OF ATOMS
50
ITEM: BOX BOUNDS pp pp pp
0.0000000000000000e+00 1.1834526708278773e+01
0.0000000000000000e+00 1.1834526708278773e+01
-1.1834526708278772e+00 1.1834526708278772e+00
ITEM: ATOMS id type x y z mux muy
1 1 2.35727e-06 -2.7772e-07 0 0.010061 0.749933
2 1 1.18345 1.18345 0 -0.0230985 0.749644
3 1 2.36691 -2.2764e-06 0 0.670473 -0.336105
4 1 3.55036 1.18345 0 0.275516 -0.697561
5 1 4.73381 5.43604e-06 0 0.724166 -0.195149
6 1 5.91726 1.18345 0 0.443715 0.604663
7 1 7.10072 -7.48109e-06 0 -0.488158 0.569387
8 1 8.28417 1.18345 0 -0.476964 0.578797
9 1 9.46762 -1.07143e-05 0 0.467225 -0.586686
10 1 10.6511 1.18345 0 -0.0893474 -0.744659
11 1 -7.24212e-08 2.36691 0 0.234202 -0.712495
13 1 2.36691 2.3669 0 -0.275964 -0.697384
15 1 4.73382 2.36691 0 0.600489 -0.449347
17 1 7.10072 2.3669 0 0.0862387 -0.745025
19 1 9.46762 2.3669 0 0.0558572 0.747917
12 1 1.18345 3.55036 0 -0.736785 -0.140173
14 1 3.55036 3.55036 0 0.188388 0.725955
16 1 5.91726 3.55036 0 -0.719964 0.210123
18 1 8.28417 3.55036 0 0.746667 -0.0706285
20 1 10.6511 3.55036 0 -0.509116 0.550727
21 1 3.01736e-06 4.73381 0 -0.522427 0.538117
22 1 1.18345 5.91726 0 -0.0751425 0.746226
23 1 2.3669 4.73381 0 0.446407 -0.602678
24 1 3.55036 5.91726 0 -0.561021 0.49775
25 1 4.73382 4.73381 0 -0.00786935 -0.749959
26 1 5.91726 5.91725 0 -0.742568 0.105321
27 1 7.10072 4.73382 0 -0.638894 0.392828
28 1 8.28417 5.91726 0 0.623062 -0.417486
29 1 9.46762 4.73382 0 0.613143 -0.431921
30 1 10.6511 5.91726 0 -0.68755 -0.299625
31 1 -4.74104e-06 7.10072 0 0.745256 0.084222
33 1 2.36691 7.10071 0 -0.0402981 -0.748917
35 1 4.73381 7.10072 0 0.669511 -0.338017
37 1 7.10071 7.10071 0 0.572004 0.485089
39 1 9.46762 7.10072 0 -0.748527 0.0469791
32 1 1.18345 8.28418 0 -0.528798 -0.531858
34 1 3.55036 8.28418 0 -0.655996 -0.363551
36 1 5.91727 8.28417 0 0.0800281 0.745718
38 1 8.28417 8.28418 0 -0.153866 -0.734047
40 1 10.6511 8.28416 0 -0.589033 -0.464262
41 1 1.09063e-05 9.46763 0 0.584168 0.470369
43 1 2.3669 9.46761 0 -0.48097 0.575472
45 1 4.73381 9.46762 0 -0.0314652 -0.74934
47 1 7.10071 9.46762 0 0.675462 0.325961
49 1 9.46761 9.46762 0 -0.744087 -0.093993
42 1 1.18345 10.6511 0 0.392054 0.639369
44 1 3.55036 10.6511 0 -0.322485 0.677129
46 1 5.91726 10.6511 0 -0.651692 -0.37121
48 1 8.28416 10.6511 0 0.0305458 0.749378
50 1 10.6511 10.6511 0 0.364285 0.655589
ITEM: TIMESTEP
15
ITEM: NUMBER OF ATOMS
50
ITEM: BOX BOUNDS pp pp pp
0.0000000000000000e+00 1.1834526708278773e+01
0.0000000000000000e+00 1.1834526708278773e+01
-1.1834526708278772e+00 1.1834526708278772e+00
ITEM: ATOMS id type x y z mux muy
1 1 5.30378e-06 -6.24913e-07 0 0.010119 0.749932
2 1 1.18344 1.18346 0 -0.0230577 0.749645
3 1 2.36691 -5.12193e-06 0 0.670482 -0.336085
4 1 3.55036 1.18344 0 0.275544 -0.69755
5 1 4.7338 1.22311e-05 0 0.72417 -0.195134
6 1 5.91726 1.18345 0 0.4437 0.604674
7 1 7.10072 -1.68328e-05 0 -0.488189 0.569361
8 1 8.28417 1.18345 0 -0.476928 0.578826
9 1 9.46763 -2.41074e-05 0 0.467208 -0.5867
10 1 10.6511 1.18346 0 -0.0894266 -0.74465
11 1 -1.63097e-07 2.36691 0 0.234139 -0.712516
13 1 2.36692 2.3669 0 -0.275913 -0.697404
15 1 4.73382 2.36691 0 0.600457 -0.449391
17 1 7.10072 2.3669 0 0.0862579 -0.745023
19 1 9.46762 2.3669 0 0.0559091 0.747913
12 1 1.18344 3.55037 0 -0.736793 -0.140128
14 1 3.55036 3.55037 0 0.188383 0.725956
16 1 5.91725 3.55035 0 -0.719963 0.210126
18 1 8.28417 3.55036 0 0.746669 -0.0706036
20 1 10.6511 3.55036 0 -0.509099 0.550744
21 1 6.78916e-06 4.73381 0 -0.522392 0.538151
22 1 1.18344 5.91727 0 -0.0751428 0.746226
23 1 2.3669 4.73381 0 0.446357 -0.602715
24 1 3.55036 5.91726 0 -0.561009 0.497764
25 1 4.73383 4.73382 0 -0.00789432 -0.749958
26 1 5.91726 5.91723 0 -0.742565 0.105346
27 1 7.10072 4.73383 0 -0.638895 0.392827
28 1 8.28418 5.91726 0 0.623022 -0.417545
29 1 9.46762 4.73383 0 0.613135 -0.431932
30 1 10.6511 5.91726 0 -0.687579 -0.299558
31 1 -1.06676e-05 7.10072 0 0.745256 0.0842261
33 1 2.36691 7.10071 0 -0.0402853 -0.748917
35 1 4.73381 7.10072 0 0.669524 -0.337991
37 1 7.1007 7.10071 0 0.57201 0.485083
39 1 9.46762 7.10071 0 -0.748527 0.0469759
32 1 1.18345 8.28419 0 -0.5288 -0.531856
34 1 3.55036 8.28418 0 -0.656005 -0.363535
36 1 5.91727 8.28417 0 0.0800486 0.745716
38 1 8.28417 8.28419 0 -0.15388 -0.734044
40 1 10.6511 8.28415 0 -0.589037 -0.464257
41 1 2.45396e-05 9.46763 0 0.584155 0.470386
43 1 2.3669 9.4676 0 -0.480989 0.575456
45 1 4.73381 9.46762 0 -0.0315454 -0.749336
47 1 7.10071 9.46762 0 0.675454 0.325979
49 1 9.4676 9.46761 0 -0.744088 -0.0939827
42 1 1.18344 10.6511 0 0.392013 0.639395
44 1 3.55037 10.6511 0 -0.322459 0.677141
46 1 5.91725 10.6511 0 -0.651674 -0.371242
48 1 8.28415 10.6511 0 0.030522 0.749379
50 1 10.6511 10.6511 0 0.364342 0.655557
ITEM: TIMESTEP
20
ITEM: NUMBER OF ATOMS
50
ITEM: BOX BOUNDS pp pp pp
0.0000000000000000e+00 1.1834526708278773e+01
0.0000000000000000e+00 1.1834526708278773e+01
-1.1834526708278772e+00 1.1834526708278772e+00
ITEM: ATOMS id type x y z mux muy
1 1 9.42871e-06 -1.11106e-06 0 0.0102001 0.749931
2 1 1.18343 1.18346 0 -0.0230004 0.749647
3 1 2.36691 -9.10574e-06 0 0.670496 -0.336058
4 1 3.55036 1.18343 0 0.275583 -0.697534
5 1 4.73379 2.17444e-05 0 0.724176 -0.195114
6 1 5.91726 1.18345 0 0.44368 0.604689
7 1 7.10073 -2.9926e-05 0 -0.488232 0.569323
8 1 8.28418 1.18345 0 -0.476878 0.578868
9 1 9.46764 -4.28581e-05 0 0.467184 -0.586719
10 1 10.6511 1.18346 0 -0.0895375 -0.744636
11 1 -2.9032e-07 2.36691 0 0.234051 -0.712545
13 1 2.36692 2.3669 0 -0.275843 -0.697432
15 1 4.73383 2.36691 0 0.600411 -0.449451
17 1 7.10072 2.36689 0 0.0862847 -0.74502
19 1 9.46762 2.36689 0 0.0559818 0.747908
12 1 1.18343 3.55038 0 -0.736805 -0.140066
14 1 3.55036 3.55037 0 0.188377 0.725957
16 1 5.91724 3.55035 0 -0.719962 0.21013
18 1 8.28417 3.55036 0 0.746673 -0.0705688
20 1 10.6511 3.55036 0 -0.509074 0.550767
21 1 1.20699e-05 4.73381 0 -0.522344 0.538197
22 1 1.18343 5.91727 0 -0.0751432 0.746226
23 1 2.3669 4.73382 0 0.446287 -0.602767
24 1 3.55036 5.91725 0 -0.560992 0.497784
25 1 4.73384 4.73382 0 -0.00792927 -0.749958
26 1 5.91725 5.9172 0 -0.74256 0.105381
27 1 7.10072 4.73385 0 -0.638897 0.392824
28 1 8.28419 5.91725 0 0.622966 -0.417629
29 1 9.46761 4.73384 0 0.613125 -0.431947
30 1 10.6511 5.91725 0 -0.68762 -0.299464
31 1 -1.89655e-05 7.10073 0 0.745255 0.0842317
33 1 2.36691 7.10071 0 -0.0402674 -0.748918
35 1 4.7338 7.10073 0 0.669543 -0.337954
37 1 7.10068 7.1007 0 0.572017 0.485074
39 1 9.46762 7.10071 0 -0.748528 0.0469716
32 1 1.18344 8.28421 0 -0.528803 -0.531853
34 1 3.55037 8.28419 0 -0.656018 -0.363512
36 1 5.91728 8.28418 0 0.0800773 0.745713
38 1 8.28417 8.2842 0 -0.153899 -0.73404
40 1 10.6511 8.28414 0 -0.589043 -0.46425
41 1 4.36271e-05 9.46764 0 0.584135 0.470411
43 1 2.3669 9.46759 0 -0.481015 0.575434
45 1 4.73381 9.46762 0 -0.0316576 -0.749332
47 1 7.10071 9.46761 0 0.675442 0.326004
49 1 9.46758 9.46761 0 -0.74409 -0.0939682
42 1 1.18344 10.6511 0 0.391956 0.63943
44 1 3.55037 10.6511 0 -0.322421 0.677159
46 1 5.91724 10.6511 0 -0.651649 -0.371286
48 1 8.28414 10.6511 0 0.0304887 0.74938
50 1 10.6511 10.6511 0 0.364421 0.655513
ITEM: TIMESTEP
25
ITEM: NUMBER OF ATOMS
50
ITEM: BOX BOUNDS pp pp pp
0.0000000000000000e+00 1.1834526708278773e+01
0.0000000000000000e+00 1.1834526708278773e+01
-1.1834526708278772e+00 1.1834526708278772e+00
ITEM: ATOMS id type x y z mux muy
1 1 1.47319e-05 -1.73626e-06 0 0.0103044 0.749929
2 1 1.18342 1.18346 0 -0.0229269 0.749649
3 1 2.36691 -1.42279e-05 0 0.670513 -0.336024
4 1 3.55037 1.18342 0 0.275634 -0.697514
5 1 4.73378 3.39759e-05 0 0.724183 -0.195089
6 1 5.91725 1.18345 0 0.443653 0.604708
7 1 7.10073 -4.67612e-05 0 -0.488288 0.569275
8 1 8.28419 1.18345 0 -0.476813 0.578921
9 1 9.46764 -6.69667e-05 0 0.467154 -0.586743
10 1 10.6511 1.18346 0 -0.0896801 -0.744619
11 1 -4.54369e-07 2.36691 0 0.233938 -0.712582
13 1 2.36693 2.3669 0 -0.275752 -0.697468
15 1 4.73384 2.36692 0 0.600353 -0.449529
17 1 7.10072 2.36688 0 0.0863191 -0.745016
19 1 9.46762 2.36688 0 0.0560752 0.747901
12 1 1.18342 3.55039 0 -0.73682 -0.139985
14 1 3.55036 3.55038 0 0.188369 0.725959
16 1 5.91723 3.55035 0 -0.71996 0.210136
18 1 8.28417 3.55036 0 0.746677 -0.070524
20 1 10.6511 3.55036 0 -0.509042 0.550796
21 1 1.88597e-05 4.73381 0 -0.522282 0.538258
22 1 1.18342 5.91727 0 -0.0751437 0.746226
23 1 2.3669 4.73382 0 0.446198 -0.602833
24 1 3.55037 5.91725 0 -0.560969 0.497809
25 1 4.73386 4.73383 0 -0.00797422 -0.749958
26 1 5.91725 5.91717 0 -0.742553 0.105426
27 1 7.10073 4.73388 0 -0.638899 0.392821
28 1 8.2842 5.91725 0 0.622894 -0.417736
29 1 9.46761 4.73386 0 0.613111 -0.431966
30 1 10.6511 5.91725 0 -0.687673 -0.299343
31 1 -2.96351e-05 7.10073 0 0.745254 0.084239
33 1 2.36692 7.1007 0 -0.0402443 -0.748919
35 1 4.7338 7.10074 0 0.669566 -0.337906
37 1 7.10067 7.10069 0 0.572027 0.485062
39 1 9.46762 7.10071 0 -0.748528 0.0469659
32 1 1.18344 8.28423 0 -0.528806 -0.531849
34 1 3.55037 8.28421 0 -0.656034 -0.363482
36 1 5.91729 8.28418 0 0.0801141 0.745709
38 1 8.28418 8.28422 0 -0.153924 -0.734035
40 1 10.6511 8.28412 0 -0.58905 -0.464241
41 1 6.81698e-05 9.46765 0 0.58411 0.470442
43 1 2.3669 9.46757 0 -0.481049 0.575406
45 1 4.73382 9.46762 0 -0.031802 -0.749325
47 1 7.1007 9.46761 0 0.675426 0.326036
49 1 9.46755 9.4676 0 -0.744092 -0.0939497
42 1 1.18343 10.6511 0 0.391882 0.639475
44 1 3.55038 10.6511 0 -0.322374 0.677182
46 1 5.91722 10.6511 0 -0.651617 -0.371342
48 1 8.28413 10.6511 0 0.030446 0.749382
50 1 10.6511 10.6511 0 0.364522 0.655457
ITEM: TIMESTEP
30
ITEM: NUMBER OF ATOMS
50
ITEM: BOX BOUNDS pp pp pp
0.0000000000000000e+00 1.1834526708278773e+01
0.0000000000000000e+00 1.1834526708278773e+01
-1.1834526708278772e+00 1.1834526708278772e+00
ITEM: ATOMS id type x y z mux muy
1 1 2.12132e-05 -2.50059e-06 0 0.0104319 0.749927
2 1 1.1834 1.18346 0 -0.022837 0.749652
3 1 2.36691 -2.04885e-05 0 0.670534 -0.335982
4 1 3.55037 1.18341 0 0.275695 -0.69749
5 1 4.73376 4.89258e-05 0 0.724191 -0.195057
6 1 5.91725 1.18344 0 0.443621 0.604732
7 1 7.10074 -6.73394e-05 0 -0.488357 0.569217
8 1 8.28419 1.18346 0 -0.476734 0.578986
9 1 9.46765 -9.64336e-05 0 0.467117 -0.586772
10 1 10.6511 1.18347 0 -0.0898544 -0.744598
11 1 -6.55602e-07 2.36692 0 0.2338 -0.712627
13 1 2.36695 2.3669 0 -0.27564 -0.697512
15 1 4.73386 2.36693 0 0.600281 -0.449625
17 1 7.10073 2.36687 0 0.0863612 -0.745011
19 1 9.46763 2.36687 0 0.0561895 0.747892
12 1 1.18341 3.5504 0 -0.736839 -0.139887
14 1 3.55036 3.5504 0 0.188359 0.725962
16 1 5.91721 3.55034 0 -0.719958 0.210143
18 1 8.28416 3.55036 0 0.746682 -0.0704692
20 1 10.6511 3.55036 0 -0.509003 0.550832
21 1 2.71589e-05 4.73381 0 -0.522207 0.538331
22 1 1.18341 5.91727 0 -0.0751444 0.746226
23 1 2.3669 4.73382 0 0.446088 -0.602914
24 1 3.55037 5.91724 0 -0.560942 0.497839
25 1 4.73388 4.73383 0 -0.00802916 -0.749957
26 1 5.91724 5.91713 0 -0.742546 0.10548
27 1 7.10074 4.73391 0 -0.638901 0.392817
28 1 8.28421 5.91724 0 0.622806 -0.417867
29 1 9.46761 4.73388 0 0.613095 -0.431989
30 1 10.6511 5.91724 0 -0.687737 -0.299195
31 1 -4.26772e-05 7.10074 0 0.745253 0.0842479
33 1 2.36692 7.10069 0 -0.0402161 -0.748921
35 1 4.73379 7.10074 0 0.669596 -0.337849
37 1 7.10065 7.10068 0 0.572039 0.485048
39 1 9.46762 7.10071 0 -0.748528 0.046959
32 1 1.18343 8.28426 0 -0.528811 -0.531845
34 1 3.55037 8.28423 0 -0.656054 -0.363446
36 1 5.91731 8.28419 0 0.0801592 0.745704
38 1 8.28418 8.28424 0 -0.153954 -0.734029
40 1 10.6511 8.2841 0 -0.589059 -0.46423
41 1 9.81688e-05 9.46766 0 0.58408 0.47048
43 1 2.3669 9.46755 0 -0.48109 0.575371
45 1 4.73382 9.46761 0 -0.0319784 -0.749318
47 1 7.1007 9.4676 0 0.675407 0.326076
49 1 9.46752 9.46759 0 -0.744095 -0.093927
42 1 1.18342 10.6511 0 0.391792 0.63953
44 1 3.55039 10.6511 0 -0.322315 0.67721
46 1 5.91721 10.6511 0 -0.651578 -0.371411
48 1 8.28411 10.6511 0 0.0303937 0.749384
50 1 10.6511 10.6511 0 0.364647 0.655388
ITEM: TIMESTEP
35
ITEM: NUMBER OF ATOMS
50
ITEM: BOX BOUNDS pp pp pp
0.0000000000000000e+00 1.1834526708278773e+01
0.0000000000000000e+00 1.1834526708278773e+01
-1.1834526708278772e+00 1.1834526708278772e+00
ITEM: ATOMS id type x y z mux muy
1 1 2.88722e-05 -3.4042e-06 0 0.0105825 0.749925
2 1 1.18338 1.18347 0 -0.0227307 0.749655
3 1 2.36691 -2.78877e-05 0 0.670559 -0.335932
4 1 3.55038 1.18339 0 0.275768 -0.697461
5 1 4.73375 6.65942e-05 0 0.724201 -0.19502
6 1 5.91725 1.18344 0 0.443583 0.604759
7 1 7.10075 -9.16616e-05 0 -0.488438 0.569147
8 1 8.2842 1.18346 0 -0.47664 0.579063
9 1 9.46766 -0.00013126 0 0.467073 -0.586807
10 1 10.6511 1.18347 0 -0.0900604 -0.744573
11 1 -8.94455e-07 2.36692 0 0.233636 -0.712681
13 1 2.36696 2.36689 0 -0.275509 -0.697564
15 1 4.73388 2.36693 0 0.600197 -0.449738
17 1 7.10073 2.36686 0 0.086411 -0.745005
19 1 9.46763 2.36686 0 0.0563245 0.747882
12 1 1.18339 3.55041 0 -0.736861 -0.139771
14 1 3.55037 3.55041 0 0.188347 0.725965
16 1 5.91719 3.55034 0 -0.719956 0.210151
18 1 8.28416 3.55036 0 0.746688 -0.0704044
20 1 10.6511 3.55036 0 -0.508957 0.550874
21 1 3.69677e-05 4.73381 0 -0.522117 0.538418
22 1 1.18339 5.91728 0 -0.0751452 0.746226
23 1 2.3669 4.73383 0 0.445958 -0.60301
24 1 3.55038 5.91723 0 -0.56091 0.497876
25 1 4.7339 4.73384 0 -0.00809409 -0.749956
26 1 5.91723 5.91708 0 -0.742536 0.105545
27 1 7.10074 4.73394 0 -0.638904 0.392812
28 1 8.28423 5.91724 0 0.622702 -0.418022
29 1 9.4676 4.7339 0 0.613076 -0.432017
30 1 10.6511 5.91723 0 -0.687813 -0.299021
31 1 -5.80928e-05 7.10075 0 0.745252 0.0842585
33 1 2.36693 7.10069 0 -0.0401828 -0.748923
35 1 4.73378 7.10075 0 0.66963 -0.33778
37 1 7.10062 7.10067 0 0.572053 0.485032
39 1 9.46762 7.10071 0 -0.748529 0.0469509
32 1 1.18342 8.2843 0 -0.528816 -0.531839
34 1 3.55038 8.28425 0 -0.656078 -0.363403
36 1 5.91732 8.2842 0 0.0802124 0.745698
38 1 8.28418 8.28426 0 -0.15399 -0.734021
40 1 10.6511 8.28407 0 -0.589069 -0.464217
41 1 0.000133626 9.46767 0 0.584043 0.470524
43 1 2.3669 9.46753 0 -0.481139 0.57533
45 1 4.73382 9.46761 0 -0.0321868 -0.749309
47 1 7.10069 9.4676 0 0.675385 0.326122
49 1 9.46749 9.46758 0 -0.744099 -0.0939001
42 1 1.1834 10.6511 0 0.391685 0.639596
44 1 3.55041 10.6511 0 -0.322246 0.677242
46 1 5.91719 10.651 0 -0.651532 -0.371492
48 1 8.28409 10.6511 0 0.0303319 0.749386
50 1 10.6512 10.6512 0 0.364793 0.655306
ITEM: TIMESTEP
40
ITEM: NUMBER OF ATOMS
50
ITEM: BOX BOUNDS pp pp pp
0.0000000000000000e+00 1.1834526708278773e+01
0.0000000000000000e+00 1.1834526708278773e+01
-1.1834526708278772e+00 1.1834526708278772e+00
ITEM: ATOMS id type x y z mux muy
1 1 3.77087e-05 -4.44722e-06 0 0.0107563 0.749923
2 1 1.18336 1.18347 0 -0.0226081 0.749659
3 1 2.36691 -3.64255e-05 0 0.670588 -0.335874
4 1 3.55039 1.18338 0 0.275852 -0.697428
5 1 4.73373 8.69814e-05 0 0.724213 -0.194977
6 1 5.91724 1.18344 0 0.443539 0.604792
7 1 7.10076 -0.000119729 0 -0.488531 0.569067
8 1 8.28421 1.18346 0 -0.476532 0.579152
9 1 9.46768 -0.000171445 0 0.467022 -0.586848
10 1 10.6511 1.18348 0 -0.090298 -0.744544
11 1 -1.17144e-06 2.36693 0 0.233448 -0.712743
13 1 2.36698 2.36689 0 -0.275357 -0.697623
15 1 4.7339 2.36694 0 0.600099 -0.449868
17 1 7.10074 2.36685 0 0.0864685 -0.744999
19 1 9.46763 2.36684 0 0.0564803 0.74787
12 1 1.18338 3.55043 0 -0.736886 -0.139637
14 1 3.55037 3.55042 0 0.188334 0.725969
16 1 5.91717 3.55033 0 -0.719953 0.21016
18 1 8.28416 3.55036 0 0.746695 -0.0703297
20 1 10.6511 3.55036 0 -0.508904 0.550923
21 1 4.82865e-05 4.73381 0 -0.522014 0.538518
22 1 1.18337 5.91728 0 -0.075146 0.746226
23 1 2.3669 4.73384 0 0.445808 -0.603121
24 1 3.55038 5.91722 0 -0.560873 0.497918
25 1 4.73393 4.73385 0 -0.00816902 -0.749956
26 1 5.91723 5.91702 0 -0.742526 0.10562
27 1 7.10075 4.73398 0 -0.638908 0.392806
28 1 8.28425 5.91723 0 0.622582 -0.418201
29 1 9.46759 4.73393 0 0.613053 -0.432048
30 1 10.6511 5.91723 0 -0.6879 -0.298819
31 1 -7.58829e-05 7.10076 0 0.745251 0.0842706
33 1 2.36693 7.10068 0 -0.0401444 -0.748925
35 1 4.73377 7.10077 0 0.66967 -0.337701
37 1 7.10059 7.10066 0 0.572069 0.485013
39 1 9.46762 7.1007 0 -0.74853 0.0469415
32 1 1.18342 8.28434 0 -0.528823 -0.531833
34 1 3.55039 8.28427 0 -0.656105 -0.363354
36 1 5.91734 8.28421 0 0.0802739 0.745692
38 1 8.28419 8.28429 0 -0.154031 -0.734013
40 1 10.6511 8.28404 0 -0.589081 -0.464202
41 1 0.000174542 9.46769 0 0.584002 0.470576
43 1 2.3669 9.4675 0 -0.481196 0.575283
45 1 4.73383 9.46761 0 -0.0324274 -0.749299
47 1 7.10069 9.46759 0 0.675359 0.326176
49 1 9.46745 9.46757 0 -0.744103 -0.0938691
42 1 1.18339 10.6511 0 0.391562 0.639671
44 1 3.55042 10.6511 0 -0.322167 0.67728
46 1 5.91716 10.651 0 -0.651478 -0.371586
48 1 8.28407 10.6511 0 0.0302606 0.749389
50 1 10.6512 10.6512 0 0.364963 0.655212
ITEM: TIMESTEP
45
ITEM: NUMBER OF ATOMS
50
ITEM: BOX BOUNDS pp pp pp
0.0000000000000000e+00 1.1834526708278773e+01
0.0000000000000000e+00 1.1834526708278773e+01
-1.1834526708278772e+00 1.1834526708278772e+00
ITEM: ATOMS id type x y z mux muy
1 1 4.77223e-05 -5.62985e-06 0 0.0109533 0.74992
2 1 1.18334 1.18348 0 -0.0224691 0.749663
3 1 2.36691 -4.61021e-05 0 0.670621 -0.335809
4 1 3.55039 1.18336 0 0.275947 -0.69739
5 1 4.73371 0.000110088 0 0.724226 -0.194928
6 1 5.91724 1.18343 0 0.44349 0.604828
7 1 7.10078 -0.000151544 0 -0.488637 0.568976
8 1 8.28422 1.18346 0 -0.47641 0.579253
9 1 9.46769 -0.000216991 0 0.466965 -0.586893
10 1 10.6511 1.18348 0 -0.0905673 -0.744512
11 1 -1.48716e-06 2.36693 0 0.233234 -0.712813
13 1 2.36699 2.36689 0 -0.275185 -0.697691
15 1 4.73392 2.36695 0 0.599989 -0.450015
17 1 7.10074 2.36683 0 0.0865336 -0.744991
19 1 9.46763 2.36683 0 0.0566568 0.747857
12 1 1.18335 3.55045 0 -0.736915 -0.139486
14 1 3.55037 3.55044 0 0.188319 0.725973
16 1 5.91714 3.55032 0 -0.71995 0.210171
18 1 8.28416 3.55037 0 0.746703 -0.070245
20 1 10.6511 3.55036 0 -0.508844 0.550979
21 1 6.11157e-05 4.73381 0 -0.521896 0.538632
22 1 1.18335 5.91729 0 -0.075147 0.746226
23 1 2.36689 4.73384 0 0.445639 -0.603246
24 1 3.55039 5.91721 0 -0.56083 0.497965
25 1 4.73396 4.73386 0 -0.00825394 -0.749955
26 1 5.91722 5.91696 0 -0.742514 0.105704
27 1 7.10076 4.73402 0 -0.638912 0.3928
28 1 8.28427 5.91722 0 0.622446 -0.418404
29 1 9.46759 4.73396 0 0.613028 -0.432084
30 1 10.6511 5.91722 0 -0.688 -0.298591
31 1 -9.60487e-05 7.10077 0 0.745249 0.0842844
33 1 2.36694 7.10067 0 -0.0401008 -0.748927
35 1 4.73376 7.10078 0 0.669715 -0.337612
37 1 7.10056 7.10064 0 0.572087 0.484991
39 1 9.46761 7.1007 0 -0.74853 0.0469309
32 1 1.18341 8.28438 0 -0.52883 -0.531826
34 1 3.5504 8.2843 0 -0.656136 -0.363298
36 1 5.91736 8.28421 0 0.0803435 0.745684
38 1 8.28419 8.28432 0 -0.154078 -0.734003
40 1 10.6511 8.284 0 -0.589095 -0.464185
41 1 0.000220919 9.46771 0 0.583955 0.470635
43 1 2.36689 9.46747 0 -0.48126 0.57523
45 1 4.73383 9.4676 0 -0.0326999 -0.749287
47 1 7.10068 9.46758 0 0.675329 0.326237
49 1 9.4674 9.46756 0 -0.744107 -0.0938341
42 1 1.18337 10.6511 0 0.391423 0.639756
44 1 3.55044 10.6511 0 -0.322076 0.677323
46 1 5.91713 10.651 0 -0.651417 -0.371693
48 1 8.28404 10.6511 0 0.0301798 0.749393
50 1 10.6512 10.6512 0 0.365155 0.655105
ITEM: TIMESTEP
50
ITEM: NUMBER OF ATOMS
50
ITEM: BOX BOUNDS pp pp pp
0.0000000000000000e+00 1.1834526708278773e+01
0.0000000000000000e+00 1.1834526708278773e+01
-1.1834526708278772e+00 1.1834526708278772e+00
ITEM: ATOMS id type x y z mux muy
1 1 5.89126e-05 -6.95227e-06 0 0.0111734 0.749917
2 1 1.18331 1.18349 0 -0.0223138 0.749668
3 1 2.36691 -5.69178e-05 0 0.670657 -0.335736
4 1 3.5504 1.18333 0 0.276053 -0.697348
5 1 4.73368 0.000135913 0 0.72424 -0.194874
6 1 5.91723 1.18343 0 0.443434 0.604869
7 1 7.10079 -0.000187107 0 -0.488755 0.568874
8 1 8.28424 1.18346 0 -0.476273 0.579365
9 1 9.46771 -0.000267898 0 0.466901 -0.586944
10 1 10.6511 1.18349 0 -0.0908683 -0.744475
11 1 -1.84229e-06 2.36694 0 0.232995 -0.712891
13 1 2.36702 2.36688 0 -0.274993 -0.697767
15 1 4.73395 2.36697 0 0.599865 -0.45018
17 1 7.10075 2.36681 0 0.0866063 -0.744983
19 1 9.46763 2.36681 0 0.0568542 0.747842
12 1 1.18333 3.55047 0 -0.736947 -0.139316
14 1 3.55037 3.55046 0 0.188302 0.725977
16 1 5.91712 3.55031 0 -0.719947 0.210182
18 1 8.28416 3.55037 0 0.746712 -0.0701504
20 1 10.6511 3.55036 0 -0.508777 0.551041
21 1 7.54558e-05 4.73381 0 -0.521766 0.538759
22 1 1.18332 5.91729 0 -0.0751481 0.746226
23 1 2.36689 4.73385 0 0.445449 -0.603386
24 1 3.5504 5.91719 0 -0.560783 0.498018
25 1 4.73399 4.73388 0 -0.00834886 -0.749954
26 1 5.9172 5.91689 0 -0.7425 0.105799
27 1 7.10077 4.73407 0 -0.638916 0.392793
28 1 8.28429 5.91721 0 0.622293 -0.41863
29 1 9.46758 4.734 0 0.612999 -0.432125
30 1 10.6511 5.9172 0 -0.68811 -0.298336
31 1 -0.000118592 7.10078 0 0.745247 0.0842998
33 1 2.36695 7.10065 0 -0.0400521 -0.74893
35 1 4.73375 7.10079 0 0.669766 -0.337512
37 1 7.10052 7.10063 0 0.572107 0.484967
39 1 9.46761 7.1007 0 -0.748531 0.046919
32 1 1.1834 8.28443 0 -0.528837 -0.531819
34 1 3.55041 8.28433 0 -0.656171 -0.363235
36 1 5.91739 8.28423 0 0.0804213 0.745676
38 1 8.2842 8.28435 0 -0.15413 -0.733992
40 1 10.6511 8.28396 0 -0.58911 -0.464166
41 1 0.000272761 9.46773 0 0.583902 0.4707
43 1 2.36689 9.46743 0 -0.481331 0.57517
45 1 4.73384 9.4676 0 -0.0330046 -0.749273
47 1 7.10067 9.46757 0 0.675296 0.326305
49 1 9.46735 9.46754 0 -0.744112 -0.0937948
42 1 1.18335 10.6511 0 0.391267 0.639852
44 1 3.55046 10.6511 0 -0.321975 0.677371
46 1 5.9171 10.651 0 -0.651349 -0.371812
48 1 8.28401 10.6511 0 0.0300895 0.749396
50 1 10.6513 10.6512 0 0.365369 0.654985
ITEM: TIMESTEP
55
ITEM: NUMBER OF ATOMS
50
ITEM: BOX BOUNDS pp pp pp
0.0000000000000000e+00 1.1834526708278773e+01
0.0000000000000000e+00 1.1834526708278773e+01
-1.1834526708278772e+00 1.1834526708278772e+00
ITEM: ATOMS id type x y z mux muy
1 1 7.12791e-05 -8.4147e-06 0 0.0114167 0.749913
2 1 1.18328 1.18349 0 -0.0221421 0.749673
3 1 2.36691 -6.88726e-05 0 0.670698 -0.335656
4 1 3.55041 1.18331 0 0.27617 -0.697302
5 1 4.73366 0.000164458 0 0.724257 -0.194814
6 1 5.91722 1.18343 0 0.443372 0.604914
7 1 7.10081 -0.00022642 0 -0.488886 0.568762
8 1 8.28425 1.18346 0 -0.476121 0.57949
9 1 9.46773 -0.000324167 0 0.46683 -0.587001
10 1 10.6511 1.1835 0 -0.091201 -0.744434
11 1 -2.23758e-06 2.36694 0 0.232731 -0.712977
13 1 2.36704 2.36688 0 -0.27478 -0.697851
15 1 4.73398 2.36698 0 0.599728 -0.450362
17 1 7.10075 2.36679 0 0.0866868 -0.744973
19 1 9.46764 2.36679 0 0.0570723 0.747825
12 1 1.18331 3.5505 0 -0.736982 -0.139129
14 1 3.55038 3.55048 0 0.188283 0.725982
16 1 5.91709 3.5503 0 -0.719943 0.210195
18 1 8.28415 3.55037 0 0.746722 -0.0700458
20 1 10.6511 3.55036 0 -0.508702 0.55111
21 1 9.13073e-05 4.73381 0 -0.521621 0.538899
22 1 1.18329 5.9173 0 -0.0751493 0.746226
23 1 2.36689 4.73386 0 0.445239 -0.603541
24 1 3.55041 5.91718 0 -0.560731 0.498077
25 1 4.73403 4.73389 0 -0.00845377 -0.749952
26 1 5.91719 5.91681 0 -0.742485 0.105904
27 1 7.10078 4.73413 0 -0.638921 0.392785
28 1 8.28431 5.9172 0 0.622125 -0.41888
29 1 9.46757 4.73403 0 0.612968 -0.432169
30 1 10.6511 5.91719 0 -0.688233 -0.298053
31 1 -0.000143513 7.10079 0 0.745245 0.0843169
33 1 2.36695 7.10064 0 -0.0399983 -0.748933
35 1 4.73374 7.10081 0 0.669821 -0.337401
37 1 7.10048 7.10061 0 0.57213 0.484941
39 1 9.46761 7.10069 0 -0.748532 0.0469059
32 1 1.18338 8.28449 0 -0.528846 -0.53181
34 1 3.55041 8.28437 0 -0.656209 -0.363166
36 1 5.91741 8.28424 0 0.0805073 0.745667
38 1 8.2842 8.28439 0 -0.154187 -0.73398
40 1 10.6512 8.28392 0 -0.589126 -0.464144
41 1 0.000330068 9.46775 0 0.583843 0.470773
43 1 2.36689 9.4674 0 -0.48141 0.575104
45 1 4.73384 9.4676 0 -0.0333412 -0.749259
47 1 7.10066 9.46756 0 0.67526 0.32638
49 1 9.46729 9.46753 0 -0.744117 -0.0937515
42 1 1.18333 10.6511 0 0.391095 0.639957
44 1 3.55048 10.6511 0 -0.321864 0.677424
46 1 5.91707 10.651 0 -0.651274 -0.371944
48 1 8.28397 10.6511 0 0.0299897 0.7494
50 1 10.6513 10.6513 0 0.365606 0.654853
ITEM: TIMESTEP
60
ITEM: NUMBER OF ATOMS
50
ITEM: BOX BOUNDS pp pp pp
0.0000000000000000e+00 1.1834526708278773e+01
0.0000000000000000e+00 1.1834526708278773e+01
-1.1834526708278772e+00 1.1834526708278772e+00
ITEM: ATOMS id type x y z mux muy
1 1 8.48214e-05 -1.00174e-05 0 0.0116831 0.749909
2 1 1.18325 1.1835 0 -0.0219541 0.749679
3 1 2.36691 -8.19668e-05 0 0.670742 -0.335567
4 1 3.55042 1.18328 0 0.276299 -0.697251
5 1 4.73363 0.000195723 0 0.724274 -0.194748
6 1 5.91721 1.18342 0 0.443305 0.604963
7 1 7.10082 -0.000269486 0 -0.489029 0.568639
8 1 8.28427 1.18347 0 -0.475956 0.579626
9 1 9.46775 -0.000385799 0 0.466752 -0.587063
10 1 10.6511 1.18351 0 -0.0915653 -0.74439
11 1 -2.67387e-06 2.36695 0 0.232441 -0.713072
13 1 2.36706 2.36687 0 -0.274548 -0.697942
15 1 4.73401 2.36699 0 0.599578 -0.450562
17 1 7.10076 2.36677 0 0.0867749 -0.744963
19 1 9.46764 2.36676 0 0.0573112 0.747807
12 1 1.18328 3.55052 0 -0.737021 -0.138924
14 1 3.55038 3.55051 0 0.188262 0.725987
16 1 5.91705 3.55029 0 -0.719939 0.210209
18 1 8.28415 3.55037 0 0.746733 -0.0699312
20 1 10.6511 3.55037 0 -0.508621 0.551185
21 1 0.000108671 4.73382 0 -0.521462 0.539052
22 1 1.18326 5.91731 0 -0.0751506 0.746225
23 1 2.36688 4.73387 0 0.44501 -0.603711
24 1 3.55042 5.91716 0 -0.560674 0.498141
25 1 4.73408 4.73391 0 -0.0085687 -0.749951
26 1 5.91718 5.91672 0 -0.742469 0.106018
27 1 7.1008 4.73419 0 -0.638926 0.392777
28 1 8.28434 5.91718 0 0.621941 -0.419154
29 1 9.46756 4.73408 0 0.612934 -0.432218
30 1 10.6511 5.91718 0 -0.688366 -0.297744
31 1 -0.000170815 7.10081 0 0.745243 0.0843356