ITEM: TIMESTEP
0
ITEM: NUMBER OF ATOMS
98
ITEM: BOX BOUNDS pp pp pp
0.0000000000000000e+00 1.3944333775567927e+01
0.0000000000000000e+00 1.3944333775567927e+01
-9.9602384111199471e-01 9.9602384111199471e-01
ITEM: ATOMS id type x y z mux muy
1 1 0 0 0 0.0100147 0.749933
2 1 0.996024 0.996024 0 -0.674448 -0.328055
3 1 1.99205 0 0 -0.47765 0.578231
4 1 2.98807 0.996024 0 -0.430756 0.613962
5 1 3.9841 0 0 -0.729122 0.175729
6 1 4.98012 0.996024 0 0.344204 0.666351
7 1 5.97614 0 0 -0.371162 -0.65172
8 1 6.97217 0.996024 0 -0.622005 0.419058
9 1 7.96819 0 0 -0.530545 -0.530115
10 1 8.96421 0.996024 0 -0.45953 -0.592733
11 1 9.96024 0 0 0.247731 0.707905
12 1 10.9563 0.996024 0 -0.666685 0.343557
13 1 11.9523 0 0 0.559588 -0.499361
14 1 12.9483 0.996024 0 0.701695 -0.264809
15 1 0 1.99205 0 -0.543474 0.516852
16 1 0.996024 2.98807 0 -0.491991 -0.566079
17 1 1.99205 1.99205 0 -0.738896 0.12858
18 1 2.98807 2.98807 0 -0.51979 -0.540665
19 1 3.9841 1.99205 0 -0.492312 -0.565799
20 1 4.98012 2.98807 0 0.634419 0.400015
21 1 5.97614 1.99205 0 0.240606 0.710358
22 1 6.97217 2.98807 0 0.532814 -0.527835
23 1 7.96819 1.99205 0 0.638643 0.393236
24 1 8.96421 2.98807 0 -0.648144 -0.377371
25 1 9.96024 1.99205 0 0.169699 0.730549
26 1 10.9563 2.98807 0 0.661951 0.352592
27 1 11.9523 1.99205 0 -0.526642 0.533993
28 1 12.9483 2.98807 0 0.161003 -0.732515
29 1 0 3.9841 0 -0.724725 -0.193064
31 1 1.99205 3.9841 0 0.349252 -0.663719
33 1 3.9841 3.9841 0 -0.343901 -0.666507
35 1 5.97614 3.9841 0 -0.639939 -0.391124
37 1 7.96819 3.9841 0 0.305804 -0.684824
39 1 9.96024 3.9841 0 0.297545 -0.688453
41 1 11.9523 3.9841 0 0.438195 0.608675
30 1 0.996024 4.98012 0 0.664937 -0.346927
43 1 0 5.97614 0 -0.476706 0.579009
32 1 2.98807 4.98012 0 0.447893 -0.601575
45 1 1.99205 5.97614 0 0.276067 0.697343
47 1 3.9841 5.97614 0 0.385159 0.643547
34 1 4.98012 4.98012 0 0.687223 -0.300374
49 1 5.97614 5.97614 0 0.389265 0.641071
36 1 6.97217 4.98012 0 -0.579278 -0.476379
38 1 8.96421 4.98012 0 0.547059 -0.513056
51 1 7.96819 5.97614 0 0.390639 -0.640235
53 1 9.96024 5.97614 0 -0.103551 0.742817
40 1 10.9563 4.98012 0 -0.683042 -0.309763
55 1 11.9523 5.97614 0 -0.703785 0.259203
42 1 12.9483 4.98012 0 -0.637743 -0.394694
44 1 0.996024 6.97217 0 0.749564 0.0255652
46 1 2.98807 6.97217 0 -0.525926 -0.534698
48 1 4.98012 6.97217 0 -0.563592 -0.494838
50 1 6.97217 6.97217 0 0.749979 -0.00555041
52 1 8.96421 6.97217 0 0.420341 -0.621139
54 1 10.9563 6.97217 0 0.678511 0.319567
56 1 12.9483 6.97217 0 -0.394037 0.638149
57 1 0 7.96819 0 0.34287 -0.667038
58 1 0.996024 8.96421 0 0.377149 0.648273
59 1 1.99205 7.96819 0 0.667309 0.342343
60 1 2.98807 8.96421 0 -0.731706 0.164639
61 1 3.9841 7.96819 0 -0.738579 -0.130386
62 1 4.98012 8.96421 0 0.615771 0.428165
63 1 5.97614 7.96819 0 0.622135 0.418865
64 1 6.97217 8.96421 0 -0.297293 0.688561
65 1 7.96819 7.96819 0 -0.0795908 0.745765
66 1 8.96421 8.96421 0 0.744515 0.0905437
67 1 9.96024 7.96819 0 -0.718563 0.214864
68 1 10.9563 8.96421 0 0.264088 -0.701967
69 1 11.9523 7.96819 0 0.546398 0.51376
70 1 12.9483 8.96421 0 -0.44263 -0.605457
71 1 0 9.96024 0 0.345589 -0.665634
73 1 1.99205 9.96024 0 0.541696 -0.518715
75 1 3.9841 9.96024 0 0.516894 -0.543434
77 1 5.97614 9.96024 0 -0.4035 0.632209
79 1 7.96819 9.96024 0 -0.514683 0.545529
81 1 9.96024 9.96024 0 0.517186 0.543156
83 1 11.9523 9.96024 0 -0.725714 -0.189312
72 1 0.996024 10.9563 0 0.585465 0.468755
85 1 0 11.9523 0 -0.0455755 0.748614
74 1 2.98807 10.9563 0 -0.499893 0.559113
87 1 1.99205 11.9523 0 0.439702 0.607587
89 1 3.9841 11.9523 0 0.0565193 0.747867
76 1 4.98012 10.9563 0 0.42503 0.61794
91 1 5.97614 11.9523 0 -0.506229 -0.553382
78 1 6.97217 10.9563 0 0.315194 0.680553
80 1 8.96421 10.9563 0 -0.302082 0.686474
93 1 7.96819 11.9523 0 -0.388057 -0.641804
95 1 9.96024 11.9523 0 0.592801 0.459441
82 1 10.9563 10.9563 0 -0.493915 0.5644
97 1 11.9523 11.9523 0 0.0509058 -0.74827
84 1 12.9483 10.9563 0 -0.70728 0.24951
86 1 0.996024 12.9483 0 -0.54822 -0.511815
88 1 2.98807 12.9483 0 -0.738752 -0.129403
90 1 4.98012 12.9483 0 0.677403 -0.321908
92 1 6.97217 12.9483 0 -0.686548 -0.301915
94 1 8.96421 12.9483 0 0.196123 -0.723903
96 1 10.9563 12.9483 0 0.331566 0.672729
98 1 12.9483 12.9483 0 -0.403305 0.632333
ITEM: TIMESTEP
5
ITEM: NUMBER OF ATOMS
98
ITEM: BOX BOUNDS pp pp pp
0.0000000000000000e+00 1.3944333775567927e+01
0.0000000000000000e+00 1.3944333775567927e+01
-9.9602384111199471e-01 9.9602384111199471e-01
ITEM: ATOMS id type x y z mux muy
1 1 -7.08093e-07 -2.1839e-06 0 0.0100237 0.749933
2 1 0.996027 0.996027 0 -0.67445 -0.328051
3 1 1.99205 -2.76473e-06 0 -0.477651 0.57823
4 1 2.98807 0.996025 0 -0.430761 0.613959
5 1 3.98409 -3.73438e-08 0 -0.729123 0.175727
6 1 4.98012 0.996027 0 0.34421 0.666348
7 1 5.97614 4.34411e-06 0 -0.371171 -0.651715
8 1 6.97217 0.996021 0 -0.622006 0.419057
9 1 7.96819 1.99019e-06 0 -0.530545 -0.530115
10 1 8.96421 0.99602 0 -0.45953 -0.592733
11 1 9.96024 2.41611e-07 0 0.247723 0.707908
12 1 10.9563 0.996027 0 -0.666682 0.343562
13 1 11.9523 -2.73542e-06 0 0.559596 -0.499351
14 1 12.9483 0.996024 0 0.701696 -0.264807
15 1 -1.09602e-07 1.99204 0 -0.543475 0.516851
16 1 0.996027 2.98807 0 -0.492001 -0.56607
17 1 1.99205 1.99205 0 -0.738897 0.128572
18 1 2.98807 2.98807 0 -0.519781 -0.540673
19 1 3.9841 1.99204 0 -0.492309 -0.565802
20 1 4.98012 2.98807 0 0.634419 0.400016
21 1 5.97614 1.99205 0 0.240603 0.710359
22 1 6.97217 2.98807 0 0.532819 -0.52783
23 1 7.96819 1.99205 0 0.638657 0.393214
24 1 8.96422 2.98807 0 -0.648142 -0.377374
25 1 9.96024 1.99205 0 0.16969 0.730551
26 1 10.9563 2.98807 0 0.661949 0.352596
27 1 11.9523 1.99205 0 -0.526655 0.53398
28 1 12.9483 2.98807 0 0.160991 -0.732518
29 1 -9.37275e-07 3.98409 0 -0.724729 -0.193049
31 1 1.99204 3.9841 0 0.349246 -0.663722
33 1 3.98409 3.98409 0 -0.3439 -0.666508
35 1 5.97615 3.9841 0 -0.639934 -0.391132
37 1 7.96819 3.9841 0 0.305805 -0.684824
39 1 9.96024 3.9841 0 0.297536 -0.688457
41 1 11.9523 3.98409 0 0.438198 0.608673
30 1 0.996027 4.98012 0 0.664937 -0.346928
43 1 -2.26593e-06 5.97615 0 -0.476714 0.579003
32 1 2.98807 4.98012 0 0.447901 -0.601568
45 1 1.99205 5.97614 0 0.276072 0.697341
47 1 3.98409 5.97614 0 0.385168 0.643542
34 1 4.98012 4.98012 0 0.687224 -0.300371
49 1 5.97614 5.97614 0 0.389264 0.641072
36 1 6.97217 4.98012 0 -0.579274 -0.476384
38 1 8.96422 4.98012 0 0.547058 -0.513057
51 1 7.96819 5.97614 0 0.390629 -0.640242
53 1 9.96024 5.97614 0 -0.103541 0.742818
40 1 10.9563 4.98012 0 -0.683046 -0.309754
55 1 11.9523 5.97614 0 -0.703788 0.259195
42 1 12.9483 4.98012 0 -0.63775 -0.394684
44 1 0.99602 6.97217 0 0.749564 0.0255651
46 1 2.98807 6.97217 0 -0.525921 -0.534702
48 1 4.98012 6.97217 0 -0.563599 -0.494829
50 1 6.97217 6.97216 0 0.749979 -0.0055498
52 1 8.96422 6.97217 0 0.42033 -0.621146
54 1 10.9563 6.97217 0 0.678505 0.31958
56 1 12.9483 6.97217 0 -0.394045 0.638145
57 1 -9.13512e-07 7.96819 0 0.342888 -0.667029
58 1 0.996024 8.96422 0 0.377143 0.648277
59 1 1.99205 7.96818 0 0.667306 0.342348
60 1 2.98807 8.96421 0 -0.731704 0.16465
61 1 3.98409 7.96819 0 -0.738581 -0.130376
62 1 4.98012 8.96422 0 0.615782 0.42815
63 1 5.97615 7.96819 0 0.622141 0.418857
64 1 6.97216 8.96421 0 -0.297289 0.688563
65 1 7.96819 7.96819 0 -0.0795846 0.745766
66 1 8.96421 8.96422 0 0.744512 0.0905656
67 1 9.96024 7.96819 0 -0.718566 0.214855
68 1 10.9563 8.96421 0 0.264074 -0.701972
69 1 11.9523 7.96819 0 0.546396 0.513762
70 1 12.9483 8.96422 0 -0.442628 -0.605459
71 1 -2.46111e-06 9.96024 0 0.345584 -0.665637
73 1 1.99205 9.96024 0 0.541705 -0.518706
75 1 3.98409 9.96023 0 0.516896 -0.543433
77 1 5.97614 9.96024 0 -0.403493 0.632213
79 1 7.96819 9.96024 0 -0.514684 0.545528
81 1 9.96024 9.96023 0 0.517184 0.543158
83 1 11.9523 9.96024 0 -0.725715 -0.189309
72 1 0.996027 10.9563 0 0.585462 0.468758
85 1 -3.64238e-06 11.9523 0 -0.0455909 0.748613
74 1 2.98807 10.9563 0 -0.499887 0.559118
87 1 1.99205 11.9523 0 0.439698 0.60759
89 1 3.9841 11.9523 0 0.0565163 0.747868
76 1 4.98012 10.9563 0 0.42501 0.617953
91 1 5.97615 11.9523 0 -0.506223 -0.553388
78 1 6.97216 10.9563 0 0.315191 0.680555
80 1 8.96422 10.9563 0 -0.302076 0.686476
93 1 7.96819 11.9523 0 -0.388066 -0.641798
95 1 9.96024 11.9523 0 0.592798 0.459446
82 1 10.9563 10.9563 0 -0.493918 0.564398
97 1 11.9523 11.9523 0 0.0509069 -0.74827
84 1 12.9483 10.9563 0 -0.707283 0.249502
86 1 0.996025 12.9483 0 -0.548222 -0.511813
88 1 2.98807 12.9483 0 -0.738755 -0.129388
90 1 4.98012 12.9483 0 0.677407 -0.3219
92 1 6.97217 12.9483 0 -0.686546 -0.301917
94 1 8.96421 12.9483 0 0.196124 -0.723903
96 1 10.9563 12.9483 0 0.331566 0.672729
98 1 12.9483 12.9483 0 -0.403308 0.632331
ITEM: TIMESTEP
10
ITEM: NUMBER OF ATOMS
98
ITEM: BOX BOUNDS pp pp pp
0.0000000000000000e+00 1.3944333775567927e+01
0.0000000000000000e+00 1.3944333775567927e+01
-9.9602384111199471e-01 9.9602384111199471e-01
ITEM: ATOMS id type x y z mux muy
1 1 -2.83246e-06 -8.73591e-06 0 0.0100509 0.749933
2 1 0.996036 0.996035 0 -0.674456 -0.328038
3 1 1.99206 -1.10593e-05 0 -0.477653 0.578228
4 1 2.98807 0.99603 0 -0.430776 0.613948
5 1 3.98409 -1.49526e-07 0 -0.729125 0.175719
6 1 4.98013 0.996037 0 0.344228 0.666339
7 1 5.97614 1.73768e-05 0 -0.371199 -0.651699
8 1 6.97216 0.996012 0 -0.622009 0.419053
9 1 7.9682 7.96128e-06 0 -0.530545 -0.530115
10 1 8.96419 0.996009 0 -0.459531 -0.592732
11 1 9.96024 9.66376e-07 0 0.247699 0.707916
12 1 10.9562 0.996038 0 -0.666674 0.343578
13 1 11.9523 -1.09417e-05 0 0.559622 -0.499323
14 1 12.9483 0.996025 0 0.701697 -0.264804
15 1 -4.38459e-07 1.99204 0 -0.543476 0.51685
16 1 0.996036 2.98806 0 -0.49203 -0.566044
17 1 1.99206 1.99204 0 -0.738902 0.128546
18 1 2.98807 2.98808 0 -0.519755 -0.540698
19 1 3.9841 1.99203 0 -0.492299 -0.565811
20 1 4.98012 2.98808 0 0.634417 0.400019
21 1 5.97614 1.99204 0 0.240595 0.710362
22 1 6.97216 2.98805 0 0.532833 -0.527816
23 1 7.96819 1.99204 0 0.638698 0.393148
24 1 8.96423 2.98807 0 -0.648136 -0.377385
25 1 9.96026 1.99206 0 0.169665 0.730557
26 1 10.9563 2.98808 0 0.661942 0.352609
27 1 11.9523 1.99206 0 -0.526695 0.53394
28 1 12.9483 2.98808 0 0.160954 -0.732526
29 1 -3.74919e-06 3.98409 0 -0.724741 -0.193005
31 1 1.99204 3.9841 0 0.349228 -0.663732
33 1 3.98409 3.98407 0 -0.343896 -0.66651
35 1 5.97615 3.98411 0 -0.63992 -0.391155
37 1 7.96819 3.9841 0 0.305809 -0.684822
39 1 9.96023 3.98409 0 0.297508 -0.688468
41 1 11.9523 3.98408 0 0.438205 0.608668
30 1 0.996038 4.98011 0 0.664936 -0.346929
43 1 -9.06414e-06 5.97615 0 -0.476736 0.578984
32 1 2.98808 4.98013 0 0.447926 -0.60155
45 1 1.99204 5.97613 0 0.276088 0.697334
47 1 3.98408 5.97614 0 0.385195 0.643526
34 1 4.98013 4.98014 0 0.687228 -0.300361
49 1 5.97615 5.97615 0 0.38926 0.641074
36 1 6.97217 4.98012 0 -0.579261 -0.4764
38 1 8.96422 4.98013 0 0.547056 -0.513059
51 1 7.96818 5.97614 0 0.390597 -0.640261
53 1 9.96026 5.97614 0 -0.103509 0.742823
40 1 10.9563 4.98013 0 -0.683058 -0.309729
55 1 11.9523 5.97613 0 -0.703797 0.25917
42 1 12.9483 4.98013 0 -0.637769 -0.394653
44 1 0.996007 6.97219 0 0.749564 0.0255648
46 1 2.98808 6.97217 0 -0.525907 -0.534717
48 1 4.98013 6.97216 0 -0.563621 -0.494804
50 1 6.97218 6.97216 0 0.749979 -0.00554797
52 1 8.96422 6.97217 0 0.420296 -0.621169
54 1 10.9563 6.97217 0 0.678486 0.319619
56 1 12.9483 6.97216 0 -0.394068 0.63813
57 1 -3.65413e-06 7.96818 0 0.342942 -0.667001
58 1 0.996025 8.96423 0 0.377123 0.648289
59 1 1.99205 7.96817 0 0.667298 0.342364
60 1 2.98808 8.96421 0 -0.731697 0.164682
61 1 3.98408 7.96818 0 -0.738586 -0.130347
62 1 4.98012 8.96423 0 0.615814 0.428104
63 1 5.97616 7.96819 0 0.622157 0.418832
64 1 6.97216 8.96421 0 -0.297277 0.688569
65 1 7.96818 7.9682 0 -0.0795658 0.745768
66 1 8.96421 8.96422 0 0.744504 0.0906315
67 1 9.96024 7.96819 0 -0.718574 0.214829
68 1 10.9563 8.96421 0 0.264033 -0.701988
69 1 11.9523 7.96818 0 0.54639 0.513768
70 1 12.9483 8.96422 0 -0.44262 -0.605465
71 1 -9.8448e-06 9.96023 0 0.345566 -0.665645
73 1 1.99205 9.96025 0 0.541733 -0.518676
75 1 3.98409 9.96022 0 0.516901 -0.543427
77 1 5.97615 9.96023 0 -0.40347 0.632228
79 1 7.96818 9.96024 0 -0.514686 0.545525
81 1 9.96023 9.96022 0 0.517176 0.543166
83 1 11.9523 9.96025 0 -0.725718 -0.189298
72 1 0.996038 10.9563 0 0.585455 0.468767
85 1 -1.457e-05 11.9523 0 -0.0456371 0.74861
74 1 2.98806 10.9563 0 -0.499871 0.559133
87 1 1.99204 11.9523 0 0.439686 0.607599
89 1 3.9841 11.9523 0 0.0565073 0.747868
76 1 4.98012 10.9562 0 0.42495 0.617995
91 1 5.97615 11.9523 0 -0.506205 -0.553405
78 1 6.97216 10.9563 0 0.315183 0.680558
80 1 8.96423 10.9563 0 -0.302059 0.686484
93 1 7.9682 11.9523 0 -0.388093 -0.641782
95 1 9.96024 11.9523 0 0.592787 0.45946
82 1 10.9563 10.9563 0 -0.493926 0.564391
97 1 11.9523 11.9523 0 0.0509102 -0.74827
84 1 12.9483 10.9563 0 -0.707291 0.249478
86 1 0.996027 12.9483 0 -0.548227 -0.511807
88 1 2.98807 12.9483 0 -0.738763 -0.129342
90 1 4.98012 12.9483 0 0.677419 -0.321874
92 1 6.97217 12.9483 0 -0.686543 -0.301926
94 1 8.9642 12.9483 0 0.196125 -0.723902
96 1 10.9562 12.9483 0 0.331567 0.672728
98 1 12.9483 12.9483 0 -0.403316 0.632326
ITEM: TIMESTEP
15
ITEM: NUMBER OF ATOMS
98
ITEM: BOX BOUNDS pp pp pp
0.0000000000000000e+00 1.3944333775567927e+01
0.0000000000000000e+00 1.3944333775567927e+01
-9.9602384111199471e-01 9.9602384111199471e-01
ITEM: ATOMS id type x y z mux muy
1 1 -6.37337e-06 -1.96569e-05 0 0.0100963 0.749932
2 1 0.996051 0.99605 0 -0.674467 -0.328017
3 1 1.99207 -2.48849e-05 0 -0.477657 0.578225
4 1 2.98806 0.996037 0 -0.430802 0.61393
5 1 3.98407 -3.36997e-07 0 -0.729128 0.175706
6 1 4.98014 0.996054 0 0.344258 0.666323
7 1 5.97613 3.90993e-05 0 -0.371245 -0.651673
8 1 6.97216 0.995997 0 -0.622013 0.419047
9 1 7.96822 1.79148e-05 0 -0.530544 -0.530116
10 1 8.96417 0.995991 0 -0.459533 -0.592731
11 1 9.96025 2.17408e-06 0 0.247659 0.70793
12 1 10.9562 0.996056 0 -0.66666 0.343604
13 1 11.9523 -2.46187e-05 0 0.559664 -0.499275
14 1 12.9483 0.996027 0 0.7017 -0.264797
15 1 -9.86721e-07 1.99202 0 -0.543478 0.516848
16 1 0.996051 2.98806 0 -0.492079 -0.566002
17 1 1.99207 1.99203 0 -0.738909 0.128503
18 1 2.98807 2.98808 0 -0.519712 -0.54074
19 1 3.9841 1.99201 0 -0.492282 -0.565826
20 1 4.98012 2.98808 0 0.634414 0.400023
21 1 5.97614 1.99204 0 0.240581 0.710367
22 1 6.97215 2.98803 0 0.532856 -0.527792
23 1 7.96818 1.99204 0 0.638766 0.393037
24 1 8.96425 2.98807 0 -0.648126 -0.377402
25 1 9.96028 1.99207 0 0.169623 0.730567
26 1 10.9563 2.9881 0 0.66193 0.352631
27 1 11.9523 1.99208 0 -0.526762 0.533874
28 1 12.9483 2.98809 0 0.160892 -0.732539
29 1 -8.43601e-06 3.98408 0 -0.724761 -0.19293
31 1 1.99202 3.98411 0 0.349199 -0.663747
33 1 3.98408 3.98404 0 -0.34389 -0.666513
35 1 5.97616 3.98414 0 -0.639896 -0.391194
37 1 7.96819 3.98411 0 0.305816 -0.684819
39 1 9.96022 3.98409 0 0.297463 -0.688488
41 1 11.9522 3.98406 0 0.438216 0.60866
30 1 0.996056 4.9801 0 0.664935 -0.346932
43 1 -2.03958e-05 5.97617 0 -0.476773 0.578954
32 1 2.98809 4.98015 0 0.447969 -0.601518
45 1 1.99203 5.97611 0 0.276114 0.697324
47 1 3.98407 5.97613 0 0.385239 0.643499
34 1 4.98014 4.98016 0 0.687235 -0.300346
49 1 5.97615 5.97615 0 0.389254 0.641078
36 1 6.97216 4.98012 0 -0.57924 -0.476425
38 1 8.96423 4.98014 0 0.547053 -0.513062
51 1 7.96818 5.97613 0 0.390545 -0.640292
53 1 9.96028 5.97613 0 -0.103456 0.74283
40 1 10.9563 4.98013 0 -0.683077 -0.309687
55 1 11.9523 5.9761 0 -0.703812 0.259129
42 1 12.9483 4.98014 0 -0.6378 -0.394602
44 1 0.995987 6.97221 0 0.749564 0.0255643
46 1 2.9881 6.97218 0 -0.525883 -0.53474
48 1 4.98014 6.97215 0 -0.563658 -0.494763
50 1 6.97219 6.97215 0 0.74998 -0.00554492
52 1 8.96423 6.97218 0 0.420239 -0.621208
54 1 10.9562 6.97217 0 0.678455 0.319685
56 1 12.9483 6.97216 0 -0.394107 0.638106
57 1 -8.22212e-06 7.96817 0 0.343031 -0.666955
58 1 0.996026 8.96424 0 0.37709 0.648308
59 1 1.99206 7.96814 0 0.667284 0.342391
60 1 2.98809 8.9642 0 -0.731685 0.164735
61 1 3.98407 7.96817 0 -0.738595 -0.130298
62 1 4.98013 8.96425 0 0.615868 0.428027
63 1 5.97618 7.9682 0 0.622185 0.418791
64 1 6.97215 8.96421 0 -0.297256 0.688578
65 1 7.96816 7.96821 0 -0.0795344 0.745771
66 1 8.96422 8.96423 0 0.74449 0.0907412
67 1 9.96024 7.96819 0 -0.718587 0.214786
68 1 10.9563 8.96421 0 0.263964 -0.702014
69 1 11.9523 7.96818 0 0.54638 0.513779
70 1 12.9484 8.96423 0 -0.442606 -0.605475
71 1 -2.21522e-05 9.96022 0 0.345538 -0.66566
73 1 1.99206 9.96027 0 0.54178 -0.518628
75 1 3.98409 9.9602 0 0.51691 -0.543419
77 1 5.97615 9.96021 0 -0.403433 0.632251
79 1 7.96817 9.96024 0 -0.514691 0.545521
81 1 9.96023 9.96019 0 0.517163 0.543178
83 1 11.9522 9.96026 0 -0.725722 -0.18928
72 1 0.996056 10.9562 0 0.585443 0.468782
85 1 -3.27845e-05 11.9523 0 -0.0457142 0.748606
74 1 2.98804 10.9563 0 -0.499843 0.559158
87 1 1.99202 11.9523 0 0.439667 0.607613
89 1 3.9841 11.9523 0 0.0564923 0.747869
76 1 4.98012 10.9562 0 0.42485 0.618064
91 1 5.97616 11.9523 0 -0.506174 -0.553433
78 1 6.97215 10.9563 0 0.315169 0.680565
80 1 8.96425 10.9563 0 -0.302031 0.686496
93 1 7.96822 11.9523 0 -0.388137 -0.641755
95 1 9.96025 11.9523 0 0.592769 0.459484
82 1 10.9563 10.9563 0 -0.49394 0.564379
97 1 11.9523 11.9523 0 0.0509158 -0.74827
84 1 12.9483 10.9562 0 -0.707305 0.249439
86 1 0.996032 12.9483 0 -0.548237 -0.511797
88 1 2.98807 12.9483 0 -0.738776 -0.129265
90 1 4.98013 12.9483 0 0.67744 -0.321831
92 1 6.97217 12.9483 0 -0.686537 -0.301939
94 1 8.96419 12.9483 0 0.196128 -0.723902
96 1 10.9562 12.9483 0 0.331568 0.672728
98 1 12.9484 12.9483 0 -0.40333 0.632317
ITEM: TIMESTEP
20
ITEM: NUMBER OF ATOMS
98
ITEM: BOX BOUNDS pp pp pp
0.0000000000000000e+00 1.3944333775567927e+01
0.0000000000000000e+00 1.3944333775567927e+01
-9.9602384111199471e-01 9.9602384111199471e-01
ITEM: ATOMS id type x y z mux muy
1 1 -1.13312e-05 -3.49483e-05 0 0.0101597 0.749931
2 1 0.996072 0.99607 0 -0.674481 -0.327986
3 1 1.99208 -4.42433e-05 0 -0.477662 0.57822
4 1 2.98805 0.996047 0 -0.430838 0.613904
5 1 3.98406 -6.00511e-07 0 -0.729132 0.175688
6 1 4.98016 0.996077 0 0.344301 0.666301
7 1 5.97612 6.95135e-05 0 -0.37131 -0.651636
8 1 6.97215 0.995976 0 -0.622019 0.419038
9 1 7.96823 3.18531e-05 0 -0.530544 -0.530117
10 1 8.96413 0.995966 0 -0.459535 -0.592729
11 1 9.96026 3.86439e-06 0 0.247603 0.70795
12 1 10.9562 0.996081 0 -0.666641 0.343641
13 1 11.9523 -4.37665e-05 0 0.559724 -0.499209
14 1 12.9484 0.996029 0 0.701703 -0.264788
15 1 -1.75464e-06 1.992 0 -0.543481 0.516845
16 1 0.996073 2.98804 0 -0.492148 -0.565942
17 1 1.99209 1.99201 0 -0.73892 0.128443
18 1 2.98807 2.98809 0 -0.519651 -0.540798
19 1 3.9841 1.99199 0 -0.492258 -0.565846
20 1 4.98012 2.98809 0 0.63441 0.400029
21 1 5.97614 1.99203 0 0.240562 0.710373
22 1 6.97214 2.98799 0 0.532889 -0.527758
23 1 7.96818 1.99203 0 0.638861 0.392882
24 1 8.96428 2.98807 0 -0.648112 -0.377426
25 1 9.96032 1.99209 0 0.169565 0.73058
26 1 10.9563 2.98812 0 0.661913 0.352662
27 1 11.9523 1.9921 0 -0.526855 0.533783
28 1 12.9483 2.9881 0 0.160805 -0.732558
29 1 -1.49982e-05 3.98407 0 -0.724789 -0.192825
31 1 1.992 3.98412 0 0.349158 -0.663768
33 1 3.98407 3.984 0 -0.343881 -0.666518
35 1 5.97617 3.98417 0 -0.639863 -0.391248
37 1 7.96819 3.98412 0 0.305825 -0.684815
39 1 9.96021 3.98409 0 0.297399 -0.688516
41 1 11.9522 3.98403 0 0.438232 0.608648
30 1 0.996081 4.98009 0 0.664933 -0.346936
43 1 -3.6263e-05 5.97619 0 -0.476825 0.578911
32 1 2.98811 4.98017 0 0.448028 -0.601474
45 1 1.99201 5.97608 0 0.276151 0.69731
47 1 3.98404 5.97613 0 0.385302 0.643461
34 1 4.98015 4.9802 0 0.687245 -0.300324
49 1 5.97615 5.97616 0 0.389245 0.641084
36 1 6.97216 4.98011 0 -0.579211 -0.476461
38 1 8.96424 4.98016 0 0.547049 -0.513066
51 1 7.96817 5.97611 0 0.390472 -0.640337
53 1 9.96031 5.97612 0 -0.103382 0.742841
40 1 10.9563 4.98015 0 -0.683104 -0.309628
55 1 11.9523 5.97607 0 -0.703833 0.259072
42 1 12.9483 4.98016 0 -0.637844 -0.394531
44 1 0.995958 6.97225 0 0.749564 0.0255637
46 1 2.98812 6.97219 0 -0.525849 -0.534774
48 1 4.98015 6.97214 0 -0.563709 -0.494704
50 1 6.97222 6.97213 0 0.74998 -0.00554065
52 1 8.96424 6.97219 0 0.420159 -0.621262
54 1 10.9562 6.97217 0 0.678412 0.319776
56 1 12.9484 6.97215 0 -0.394161 0.638073
57 1 -1.46179e-05 7.96815 0 0.343156 -0.666891
58 1 0.996028 8.96426 0 0.377045 0.648334
59 1 1.99207 7.9681 0 0.667265 0.342428
60 1 2.9881 8.96419 0 -0.731668 0.16481
61 1 3.98405 7.96815 0 -0.738607 -0.13023
62 1 4.98014 8.96427 0 0.615943 0.427919
63 1 5.9762 7.96821 0 0.622224 0.418733
64 1 6.97214 8.96421 0 -0.297226 0.68859
65 1 7.96814 7.96823 0 -0.0794906 0.745776
66 1 8.96422 8.96424 0 0.744472 0.0908949
67 1 9.96024 7.96819 0 -0.718605 0.214725
68 1 10.9563 8.9642 0 0.263867 -0.70205
69 1 11.9523 7.96816 0 0.546367 0.513793
70 1 12.9484 8.96425 0 -0.442588 -0.605488
71 1 -3.93853e-05 9.9602 0 0.345498 -0.665681
73 1 1.99207 9.96029 0 0.541845 -0.51856
75 1 3.98408 9.96018 0 0.516923 -0.543406
77 1 5.97616 9.96019 0 -0.403381 0.632285
79 1 7.96815 9.96024 0 -0.514697 0.545515
81 1 9.96022 9.96015 0 0.517146 0.543195
83 1 11.9522 9.96028 0 -0.725729 -0.189255
72 1 0.996081 10.9562 0 0.585426 0.468804
85 1 -5.82882e-05 11.9523 0 -0.0458221 0.748599
74 1 2.98801 10.9562 0 -0.499804 0.559192
87 1 1.99201 11.9523 0 0.43964 0.607632
89 1 3.9841 11.9524 0 0.0564714 0.747871
76 1 4.98012 10.9562 0 0.42471 0.61816
91 1 5.97618 11.9523 0 -0.506131 -0.553473
78 1 6.97213 10.9563 0 0.315149 0.680574
80 1 8.96428 10.9563 0 -0.301991 0.686514
93 1 7.96825 11.9523 0 -0.3882 -0.641717
95 1 9.96026 11.9524 0 0.592743 0.459517
82 1 10.9563 10.9563 0 -0.49396 0.564362
97 1 11.9523 11.9523 0 0.0509236 -0.748269
84 1 12.9483 10.9562 0 -0.707325 0.249383
86 1 0.996038 12.9483 0 -0.54825 -0.511783
88 1 2.98808 12.9484 0 -0.738795 -0.129158
90 1 4.98014 12.9482 0 0.677468 -0.321772
92 1 6.97217 12.9483 0 -0.686528 -0.301959
94 1 8.96417 12.9483 0 0.196131 -0.723901
96 1 10.9562 12.9483 0 0.33157 0.672727
98 1 12.9484 12.9482 0 -0.40335 0.632304
ITEM: TIMESTEP
25
ITEM: NUMBER OF ATOMS
98
ITEM: BOX BOUNDS pp pp pp
0.0000000000000000e+00 1.3944333775567927e+01
0.0000000000000000e+00 1.3944333775567927e+01
-9.9602384111199471e-01 9.9602384111199471e-01
ITEM: ATOMS id type x y z mux muy
1 1 -1.77067e-05 -5.46122e-05 0 0.0102413 0.74993
2 1 0.996098 0.996096 0 -0.6745 -0.327947
3 1 1.9921 -6.91373e-05 0 -0.477669 0.578215
4 1 2.98803 0.996061 0 -0.430885 0.613872
5 1 3.98404 -9.41121e-07 0 -0.729138 0.175665
6 1 4.98018 0.996107 0 0.344356 0.666273
7 1 5.97611 0.000108622 0 -0.371393 -0.651588
8 1 6.97214 0.99595 0 -0.622026 0.419027
9 1 7.96826 4.978e-05 0 -0.530543 -0.530117
10 1 8.96409 0.995934 0 -0.459538 -0.592727
11 1 9.96028 6.03679e-06 0 0.247531 0.707975
12 1 10.9561 0.996113 0 -0.666617 0.343688
13 1 11.9522 -6.83848e-05 0 0.5598 -0.499123
14 1 12.9484 0.996032 0 0.701708 -0.264776
15 1 -2.74256e-06 1.99198 0 -0.543484 0.516841
16 1 0.996101 2.98803 0 -0.492236 -0.565865
17 1 1.99211 1.992 0 -0.738933 0.128366
18 1 2.98807 2.9881 0 -0.519573 -0.540873
19 1 3.9841 1.99195 0 -0.492228 -0.565873
20 1 4.98011 2.9881 0 0.634405 0.400037
21 1 5.97614 1.99201 0 0.240537 0.710382
22 1 6.97212 2.98795 0 0.532932 -0.527715
23 1 7.96817 1.99202 0 0.638984 0.392683
24 1 8.96432 2.98808 0 -0.648094 -0.377458
25 1 9.96036 1.99211 0 0.169489 0.730598
26 1 10.9563 2.98815 0 0.661892 0.352702
27 1 11.9523 1.99213 0 -0.526975 0.533664
28 1 12.9483 2.98811 0 0.160694 -0.732583
29 1 -2.34364e-05 3.98405 0 -0.724825 -0.19269
31 1 1.99198 3.98414 0 0.349106 -0.663796
33 1 3.98405 3.98395 0 -0.343869 -0.666524
35 1 5.97619 3.98422 0 -0.63982 -0.391318
37 1 7.96819 3.98413 0 0.305837 -0.684809
39 1 9.9602 3.98409 0 0.297317 -0.688551
41 1 11.9521 3.98399 0 0.438253 0.608633
30 1 0.996113 4.98008 0 0.66493 -0.34694
43 1 -5.66684e-05 5.97622 0 -0.476891 0.578856
32 1 2.98813 4.98019 0 0.448104 -0.601417
45 1 1.99199 5.97605 0 0.276198 0.697291
47 1 3.98402 5.97612 0 0.385382 0.643413
34 1 4.98017 4.98024 0 0.687257 -0.300295
49 1 5.97616 5.97617 0 0.389234 0.64109
36 1 6.97216 4.98011 0 -0.579173 -0.476506
38 1 8.96425 4.98018 0 0.547044 -0.513072
51 1 7.96815 5.9761 0 0.390378 -0.640394
53 1 9.96035 5.97611 0 -0.103286 0.742854
40 1 10.9562 4.98016 0 -0.683138 -0.309552
55 1 11.9522 5.97604 0 -0.70386 0.258999
42 1 12.9483 4.98019 0 -0.637901 -0.394439
44 1 0.995921 6.9723 0 0.749564 0.0255628
46 1 2.98815 6.9722 0 -0.525806 -0.534816
48 1 4.98017 6.97213 0 -0.563775 -0.494629
50 1 6.97224 6.97211 0 0.74998 -0.00553516
52 1 8.96426 6.9722 0 0.420057 -0.621331
54 1 10.9562 6.97218 0 0.678357 0.319894
56 1 12.9484 6.97215 0 -0.394231 0.63803
57 1 -2.28421e-05 7.96813 0 0.343317 -0.666808
58 1 0.99603 8.96428 0 0.376986 0.648368
59 1 1.99209 7.96805 0 0.66724 0.342477
60 1 2.98812 8.96418 0 -0.731646 0.164906
61 1 3.98402 7.96813 0 -0.738622 -0.130142
62 1 4.98015 8.9643 0 0.616039 0.427781
63 1 5.97624 7.96822 0 0.622274 0.418659
64 1 6.97212 8.96421 0 -0.297188 0.688607
65 1 7.96811 7.96825 0 -0.0794342 0.745782
66 1 8.96422 8.96426 0 0.744448 0.0910924
67 1 9.96023 7.96819 0 -0.718628 0.214647
68 1 10.9562 8.96419 0 0.263744 -0.702096
69 1 11.9523 7.96815 0 0.546349 0.513812
70 1 12.9485 8.96427 0 -0.442563 -0.605506
71 1 -6.15468e-05 9.96018 0 0.345446 -0.665708
73 1 1.99208 9.96031 0 0.541928 -0.518472
75 1 3.98407 9.96014 0 0.516939 -0.543391
77 1 5.97617 9.96017 0 -0.403313 0.632328
79 1 7.96812 9.96025 0 -0.514706 0.545507
81 1 9.9602 9.96011 0 0.517123 0.543216
83 1 11.9522 9.9603 0 -0.725737 -0.189223
72 1 0.996113 10.9562 0 0.585404 0.468831
85 1 -9.10847e-05 11.9524 0 -0.0459608 0.74859
74 1 2.98797 10.9562 0 -0.499754 0.559237
87 1 1.99198 11.9523 0 0.439605 0.607657
89 1 3.98411 11.9525 0 0.0564444 0.747873
76 1 4.98012 10.9562 0 0.42453 0.618284
91 1 5.9762 11.9523 0 -0.506075 -0.553523
78 1 6.97211 10.9563 0 0.315124 0.680586
80 1 8.96432 10.9563 0 -0.30194 0.686536
93 1 7.96828 11.9523 0 -0.38828 -0.641668
95 1 9.96027 11.9524 0 0.59271 0.459559
82 1 10.9562 10.9563 0 -0.493984 0.56434
97 1 11.9523 11.9523 0 0.0509336 -0.748269
84 1 12.9483 10.9562 0 -0.70735 0.249312
86 1 0.996046 12.9483 0 -0.548267 -0.511764
88 1 2.98808 12.9484 0 -0.738819 -0.129021
90 1 4.98015 12.9482 0 0.677505 -0.321695
92 1 6.97217 12.9483 0 -0.686517 -0.301983
94 1 8.96415 12.9483 0 0.196136 -0.7239
96 1 10.9562 12.9482 0 0.331572 0.672726
98 1 12.9484 12.9482 0 -0.403376 0.632288
ITEM: TIMESTEP
30
ITEM: NUMBER OF ATOMS
98
ITEM: BOX BOUNDS pp pp pp
0.0000000000000000e+00 1.3944333775567927e+01
0.0000000000000000e+00 1.3944333775567927e+01
-9.9602384111199471e-01 9.9602384111199471e-01
ITEM: ATOMS id type x y z mux muy
1 1 -2.55006e-05 -7.86512e-05 0 0.0103411 0.749929
2 1 0.996131 0.996128 0 -0.674523 -0.3279
3 1 1.99212 -9.95702e-05 0 -0.477678 0.578208
4 1 2.98802 0.996077 0 -0.430942 0.613832
5 1 3.98401 -1.36018e-06 0 -0.729144 0.175637
6 1 4.9802 0.996143 0 0.344423 0.666238
7 1 5.9761 0.000156429 0 -0.371495 -0.65153
8 1 6.97212 0.995917 0 -0.622035 0.419013
9 1 7.96829 7.16997e-05 0 -0.530542 -0.530118
10 1 8.96403 0.995894 0 -0.459541 -0.592724
11 1 9.96029 8.69068e-06 0 0.247443 0.708006
12 1 10.9561 0.996153 0 -0.666587 0.343746
13 1 11.9522 -9.84737e-05 0 0.559893 -0.499018
14 1 12.9484 0.996035 0 0.701713 -0.264762
15 1 -3.95094e-06 1.99194 0 -0.543489 0.516836
16 1 0.996134 2.98801 0 -0.492345 -0.565771
17 1 1.99214 1.99197 0 -0.738949 0.128272
18 1 2.98806 2.98812 0 -0.519477 -0.540965
19 1 3.98411 1.99191 0 -0.492191 -0.565905
20 1 4.98011 2.98812 0 0.634399 0.400047
21 1 5.97614 1.992 0 0.240507 0.710392
22 1 6.9721 2.9879 0 0.532984 -0.527663
23 1 7.96816 1.99201 0 0.639134 0.392439
24 1 8.96436 2.98808 0 -0.648072 -0.377496
25 1 9.96042 1.99213 0 0.169397 0.730619
26 1 10.9563 2.98819 0 0.661866 0.35275
27 1 11.9523 1.99217 0 -0.527121 0.53352
28 1 12.9483 2.98813 0 0.160558 -0.732612
29 1 -3.37513e-05 3.98403 0 -0.724868 -0.192525
31 1 1.99195 3.98416 0 0.349042 -0.66383
33 1 3.98404 3.98388 0 -0.343856 -0.666531
35 1 5.97621 3.98427 0 -0.639768 -0.391403
37 1 7.96819 3.98415 0 0.305852 -0.684803
39 1 9.96018 3.98409 0 0.297217 -0.688594
41 1 11.9521 3.98395 0 0.438278 0.608615
30 1 0.996152 4.98006 0 0.664927 -0.346946
43 1 -8.16158e-05 5.97625 0 -0.476973 0.578789
32 1 2.98816 4.98022 0 0.448197 -0.601348
45 1 1.99196 5.97601 0 0.276256 0.697268
47 1 3.98398 5.97611 0 0.385481 0.643354
34 1 4.98019 4.9803 0 0.687273 -0.30026
49 1 5.97617 5.97618 0 0.38922 0.641099
36 1 6.97216 4.98011 0 -0.579127 -0.476562
38 1 8.96426 4.98021 0 0.547038 -0.513079
51 1 7.96814 5.97608 0 0.390264 -0.640464
53 1 9.9604 5.97609 0 -0.103169 0.74287
40 1 10.9562 4.98018 0 -0.68318 -0.309459
55 1 11.9522 5.97599 0 -0.703893 0.258909
42 1 12.9483 4.98022 0 -0.637971 -0.394326
44 1 0.995876 6.97235 0 0.749564 0.0255618
46 1 2.98818 6.97222 0 -0.525752 -0.534869
48 1 4.98019 6.97211 0 -0.563856 -0.494537
50 1 6.97228 6.97208 0 0.74998 -0.00552845
52 1 8.96428 6.97222 0 0.419932 -0.621416
54 1 10.9562 6.97218 0 0.678289 0.320038
56 1 12.9484 6.97214 0 -0.394317 0.637977
57 1 -3.28954e-05 7.9681 0 0.343514 -0.666707
58 1 0.996033 8.96431 0 0.376914 0.64841
59 1 1.99211 7.96798 0 0.66721 0.342536
60 1 2.98814 8.96416 0 -0.73162 0.165024
61 1 3.98398 7.96811 0 -0.738641 -0.130034
62 1 4.98016 8.96434 0 0.616156 0.427611
63 1 5.97628 7.96823 0 0.622335 0.418569
64 1 6.9721 8.96421 0 -0.297142 0.688627
65 1 7.96808 7.96828 0 -0.0793653 0.745789
66 1 8.96422 8.96427 0 0.744418 0.0913338
67 1 9.96023 7.96819 0 -0.718657 0.214551
68 1 10.9562 8.96418 0 0.263592 -0.702153
69 1 11.9522 7.96813 0 0.546328 0.513835
70 1 12.9485 8.96429 0 -0.442534 -0.605528
71 1 -8.864e-05 9.96015 0 0.345383 -0.66574
73 1 1.99209 9.96034 0 0.542031 -0.518366
75 1 3.98406 9.9601 0 0.516959 -0.543372
77 1 5.97618 9.96014 0 -0.403231 0.63238
79 1 7.96809 9.96025 0 -0.514716 0.545498
81 1 9.96019 9.96005 0 0.517095 0.543243
83 1 11.9521 9.96033 0 -0.725748 -0.189183
72 1 0.996152 10.9562 0 0.585377 0.468865
85 1 -0.000131178 11.9524 0 -0.0461304 0.74858
74 1 2.98793 10.9562 0 -0.499693 0.559292
87 1 1.99195 11.9522 0 0.439562 0.607688
89 1 3.98411 11.9525 0 0.0564114 0.747875