ITEM: TIMESTEP
0
ITEM: NUMBER OF ATOMS
72
ITEM: BOX BOUNDS pp pp pp
0.0000000000000000e+00 1.2579418040663018e+01
0.0000000000000000e+00 1.2579418040663018e+01
-1.0482848367219182e+00 1.0482848367219182e+00
ITEM: ATOMS id type x y z mux muy
1 1 0 0 0 0.0100147 0.749933
2 1 1.04828 1.04828 0 -0.567051 -0.490869
3 1 2.09657 0 0 0.3733 -0.650498
4 1 3.14485 1.04828 0 0.523582 -0.536993
5 1 4.19314 0 0 0.38597 -0.643061
6 1 5.24142 1.04828 0 0.435793 -0.610397
7 1 6.28971 0 0 -0.417937 -0.622759
8 1 7.33799 1.04828 0 0.388771 -0.641372
9 1 8.38628 0 0 -0.702156 0.263586
10 1 9.43456 1.04828 0 0.721152 -0.206009
11 1 10.4828 0 0 0.185673 0.726654
12 1 11.5311 1.04828 0 0.737849 0.134458
13 1 0 2.09657 0 0.654634 -0.365998
15 1 2.09657 2.09657 0 0.732221 -0.162335
17 1 4.19314 2.09657 0 0.483724 0.573159
19 1 6.28971 2.09657 0 0.644994 0.382731
21 1 8.38628 2.09657 0 0.693681 0.285143
23 1 10.4828 2.09657 0 0.69248 0.288047
14 1 1.04828 3.14485 0 -0.495264 0.563218
25 1 0 4.19314 0 0.685993 -0.303172
27 1 2.09657 4.19314 0 0.149319 -0.734986
16 1 3.14485 3.14485 0 -0.487449 -0.569994
29 1 4.19314 4.19314 0 -0.545112 -0.515125
18 1 5.24142 3.14485 0 0.424118 0.618566
20 1 7.33799 3.14485 0 -0.679103 0.318306
31 1 6.28971 4.19314 0 0.336937 0.670055
33 1 8.38628 4.19314 0 0.749467 -0.0282672
22 1 9.43456 3.14485 0 -0.564363 0.493957
35 1 10.4828 4.19314 0 -0.691367 0.290708
24 1 11.5311 3.14485 0 0.698911 0.272072
26 1 1.04828 5.24142 0 0.507249 0.552448
28 1 3.14485 5.24142 0 -0.42776 -0.616053
30 1 5.24142 5.24142 0 0.617601 -0.425523
32 1 7.33799 5.24142 0 0.377716 0.647943
34 1 9.43456 5.24142 0 -0.173077 -0.729756
36 1 11.5311 5.24142 0 -0.228621 -0.714306
37 1 0 6.28971 0 -0.635036 0.399035
38 1 1.04828 7.33799 0 -0.512904 -0.547202
39 1 2.09657 6.28971 0 0.507366 0.55234
40 1 3.14485 7.33799 0 0.26082 0.703188
41 1 4.19314 6.28971 0 -0.432962 -0.612408
42 1 5.24142 7.33799 0 -0.661806 0.352864
43 1 6.28971 6.28971 0 0.698363 -0.273475
44 1 7.33799 7.33799 0 0.0313631 0.749344
45 1 8.38628 6.28971 0 0.0878357 -0.744839
46 1 9.43456 7.33799 0 0.740011 0.122001
47 1 10.4828 6.28971 0 0.709005 0.244563
48 1 11.5311 7.33799 0 0.286447 -0.693144
49 1 0 8.38628 0 -0.351932 0.662302
51 1 2.09657 8.38628 0 -0.612873 0.432304
53 1 4.19314 8.38628 0 -0.745545 0.0816269
55 1 6.28971 8.38628 0 -0.349893 0.663381
57 1 8.38628 8.38628 0 -0.748234 -0.05144
59 1 10.4828 8.38628 0 -0.473234 0.58185
50 1 1.04828 9.43456 0 -0.500815 -0.558287
61 1 0 10.4828 0 0.377538 0.648047
63 1 2.09657 10.4828 0 -0.602973 -0.446008
52 1 3.14485 9.43456 0 0.0758442 0.746155
65 1 4.19314 10.4828 0 -0.358367 0.658842
54 1 5.24142 9.43456 0 0.74785 0.056753
56 1 7.33799 9.43456 0 -0.71004 0.241543
67 1 6.28971 10.4828 0 -0.696835 -0.277346
69 1 8.38628 10.4828 0 -0.615268 -0.428888
58 1 9.43456 9.43456 0 0.495865 -0.562688
71 1 10.4828 10.4828 0 0.537949 -0.522601
60 1 11.5311 9.43456 0 -0.356558 -0.659823
62 1 1.04828 11.5311 0 0.734421 0.15207
64 1 3.14485 11.5311 0 -0.746641 0.0709022
66 1 5.24142 11.5311 0 0.0617271 -0.747456
68 1 7.33799 11.5311 0 -0.0218163 -0.749683
70 1 9.43456 11.5311 0 0.749602 0.024439
72 1 11.5311 11.5311 0 0.72957 -0.173859
ITEM: TIMESTEP
5
ITEM: NUMBER OF ATOMS
72
ITEM: BOX BOUNDS pp pp pp
0.0000000000000000e+00 1.2579418040663018e+01
0.0000000000000000e+00 1.2579418040663018e+01
-1.0482848367219182e+00 1.0482848367219182e+00
ITEM: ATOMS id type x y z mux muy
1 1 -2.04959e-06 -2.66858e-06 0 0.0100117 0.749933
2 1 1.04829 1.04828 0 -0.567042 -0.49088
3 1 2.09657 -2.0727e-07 0 0.373308 -0.650493
4 1 3.14486 1.04829 0 0.523587 -0.536988
5 1 4.19314 -9.20061e-07 0 0.385972 -0.643059
6 1 5.24142 1.04829 0 0.4358 -0.610392
7 1 6.28971 -6.46023e-07 0 -0.417934 -0.622761
8 1 7.33799 1.04829 0 0.388771 -0.641371
9 1 8.38628 -6.68449e-07 0 -0.702158 0.263578
10 1 9.43456 1.04829 0 0.721152 -0.206008
11 1 10.4828 2.65617e-07 0 0.185681 0.726652
12 1 11.5311 1.04829 0 0.737848 0.134465
13 1 3.35543e-06 2.09657 0 0.654638 -0.36599
15 1 2.09657 2.09657 0 0.732217 -0.162353
17 1 4.19314 2.09657 0 0.483734 0.57315
19 1 6.28971 2.09657 0 0.644999 0.382722
21 1 8.38628 2.09657 0 0.693682 0.285141
23 1 10.4828 2.09657 0 0.692476 0.288058
14 1 1.04829 3.14486 0 -0.495267 0.563215
25 1 -2.24708e-06 4.19314 0 0.686001 -0.303154
27 1 2.09657 4.19314 0 0.149314 -0.734987
16 1 3.14486 3.14486 0 -0.487444 -0.569998
29 1 4.19314 4.19314 0 -0.545114 -0.515123
18 1 5.24142 3.14486 0 0.424121 0.618564
20 1 7.33799 3.14486 0 -0.679101 0.31831
31 1 6.28971 4.19314 0 0.336942 0.670052
33 1 8.38628 4.19314 0 0.749467 -0.0282749
22 1 9.43456 3.14485 0 -0.564368 0.493952
35 1 10.4829 4.19314 0 -0.69137 0.290701
24 1 11.5311 3.14485 0 0.698909 0.272078
26 1 1.04829 5.24142 0 0.507244 0.552452
28 1 3.14485 5.24143 0 -0.427763 -0.616051
30 1 5.24142 5.24142 0 0.6176 -0.425523
32 1 7.33799 5.24142 0 0.377725 0.647938
34 1 9.43456 5.24142 0 -0.173074 -0.729757
36 1 11.5311 5.24143 0 -0.228609 -0.714309
37 1 2.6909e-06 6.28971 0 -0.635045 0.399022
38 1 1.04829 7.33799 0 -0.512903 -0.547202
39 1 2.09657 6.28971 0 0.507368 0.552339
40 1 3.14485 7.33799 0 0.260816 0.703189
41 1 4.19314 6.28971 0 -0.432952 -0.612415
42 1 5.24142 7.338 0 -0.66181 0.352855
43 1 6.28971 6.28971 0 0.698369 -0.273461
44 1 7.33799 7.33799 0 0.0313611 0.749344
45 1 8.38628 6.28971 0 0.087851 -0.744837
46 1 9.43456 7.33799 0 0.740012 0.121994
47 1 10.4828 6.28971 0 0.709006 0.244561
48 1 11.5311 7.338 0 0.28645 -0.693142
49 1 -9.53908e-07 8.38628 0 -0.351938 0.662299
51 1 2.09657 8.38628 0 -0.612875 0.432301
53 1 4.19314 8.38628 0 -0.745543 0.0816423
55 1 6.28971 8.38628 0 -0.349907 0.663374
57 1 8.38628 8.38628 0 -0.748234 -0.0514412
59 1 10.4828 8.38628 0 -0.473238 0.581847
50 1 1.04829 9.43457 0 -0.50082 -0.558283
61 1 4.06109e-06 10.4829 0 0.377538 0.648047
63 1 2.09657 10.4828 0 -0.602969 -0.446014
52 1 3.14486 9.43456 0 0.0758506 0.746155
65 1 4.19314 10.4829 0 -0.35837 0.65884
54 1 5.24142 9.43456 0 0.74785 0.0567482
56 1 7.33799 9.43456 0 -0.710038 0.241548
67 1 6.28971 10.4828 0 -0.696838 -0.277338
69 1 8.38628 10.4828 0 -0.615261 -0.428898
58 1 9.43456 9.43456 0 0.49586 -0.562693
71 1 10.4828 10.4829 0 0.537954 -0.522595
60 1 11.5311 9.43456 0 -0.356552 -0.659826
62 1 1.04828 11.5311 0 0.73442 0.152078
64 1 3.14486 11.5311 0 -0.746641 0.0708986
66 1 5.24142 11.5311 0 0.0617262 -0.747456
68 1 7.33799 11.5311 0 -0.0218106 -0.749683
70 1 9.43457 11.5311 0 0.749602 0.0244356
72 1 11.5311 11.5311 0 0.729571 -0.173858
ITEM: TIMESTEP
10
ITEM: NUMBER OF ATOMS
72
ITEM: BOX BOUNDS pp pp pp
0.0000000000000000e+00 1.2579418040663018e+01
0.0000000000000000e+00 1.2579418040663018e+01
-1.0482848367219182e+00 1.0482848367219182e+00
ITEM: ATOMS id type x y z mux muy
1 1 -8.19849e-06 -1.06745e-05 0 0.0100028 0.749933
2 1 1.04829 1.04828 0 -0.567014 -0.490913
3 1 2.09657 -8.2893e-07 0 0.373332 -0.650479
4 1 3.14486 1.0483 0 0.523601 -0.536975
5 1 4.19313 -3.6803e-06 0 0.38598 -0.643055
6 1 5.24143 1.04829 0 0.43582 -0.610378
7 1 6.28971 -2.58406e-06 0 -0.417924 -0.622768
8 1 7.33798 1.0483 0 0.388772 -0.641371
9 1 8.38628 -2.67383e-06 0 -0.702166 0.263557
10 1 9.43456 1.0483 0 0.721153 -0.206006
11 1 10.4828 1.06244e-06 0 0.185704 0.726646
12 1 11.5311 1.04829 0 0.737844 0.134486
13 1 1.34219e-05 2.09658 0 0.654652 -0.365966
15 1 2.09658 2.09655 0 0.732205 -0.162408
17 1 4.19314 2.09657 0 0.483766 0.573124
19 1 6.28972 2.09656 0 0.645017 0.382692
21 1 8.38628 2.09656 0 0.693686 0.285132
23 1 10.4828 2.09657 0 0.692461 0.288093
14 1 1.04829 3.14486 0 -0.495276 0.563206
25 1 -8.98814e-06 4.19315 0 0.686025 -0.3031
27 1 2.09658 4.19314 0 0.149298 -0.73499
16 1 3.14486 3.14486 0 -0.48743 -0.570011
29 1 4.19314 4.19313 0 -0.54512 -0.515116
18 1 5.24142 3.14486 0 0.424128 0.618559
20 1 7.338 3.14486 0 -0.679097 0.31832
31 1 6.28972 4.19314 0 0.336955 0.670046
33 1 8.38627 4.19314 0 0.749466 -0.0282979
22 1 9.43456 3.14485 0 -0.564382 0.493936
35 1 10.4829 4.19315 0 -0.691379 0.290681
24 1 11.5311 3.14484 0 0.698901 0.272097
26 1 1.04829 5.24142 0 0.50723 0.552465
28 1 3.14485 5.24143 0 -0.42777 -0.616046
30 1 5.24141 5.24143 0 0.617599 -0.425525
32 1 7.33798 5.24142 0 0.37775 0.647923
34 1 9.43455 5.24142 0 -0.173064 -0.729759
36 1 11.5311 5.24143 0 -0.228575 -0.71432
37 1 1.07636e-05 6.28971 0 -0.635071 0.39898
38 1 1.04829 7.338 0 -0.512901 -0.547205
39 1 2.09657 6.28971 0 0.507374 0.552333
40 1 3.14484 7.33798 0 0.260806 0.703193
41 1 4.19313 6.28971 0 -0.432922 -0.612436
42 1 5.24142 7.338 0 -0.661825 0.352829
43 1 6.28971 6.28971 0 0.698386 -0.273418
44 1 7.33798 7.33798 0 0.0313551 0.749344
45 1 8.38629 6.28971 0 0.0878968 -0.744832
46 1 9.43457 7.33799 0 0.740015 0.121973
47 1 10.4829 6.28971 0 0.709009 0.244553
48 1 11.5311 7.338 0 0.286462 -0.693137
49 1 -3.81577e-06 8.38628 0 -0.351953 0.662291
51 1 2.09658 8.38627 0 -0.612883 0.43229
53 1 4.19314 8.38628 0 -0.745538 0.0816886
55 1 6.28972 8.38627 0 -0.349948 0.663353
57 1 8.38629 8.38629 0 -0.748234 -0.0514448
59 1 10.4828 8.38628 0 -0.473248 0.581838
50 1 1.04829 9.43457 0 -0.500833 -0.558271
61 1 1.62447e-05 10.4829 0 0.37754 0.648046
63 1 2.09656 10.4828 0 -0.602954 -0.446034
52 1 3.14486 9.43456 0 0.0758699 0.746153
65 1 4.19313 10.4829 0 -0.358381 0.658835
54 1 5.24142 9.43456 0 0.747851 0.0567338
56 1 7.338 9.43457 0 -0.710033 0.241563
67 1 6.28971 10.4828 0 -0.696848 -0.277315
69 1 8.38628 10.4828 0 -0.615239 -0.428929
58 1 9.43455 9.43456 0 0.495843 -0.562708
71 1 10.4829 10.4829 0 0.53797 -0.522579
60 1 11.5311 9.43455 0 -0.356536 -0.659835
62 1 1.04828 11.5311 0 0.734415 0.1521
64 1 3.14487 11.5311 0 -0.746642 0.070888
66 1 5.24142 11.5311 0 0.0617233 -0.747456
68 1 7.33799 11.5311 0 -0.0217934 -0.749683
70 1 9.43457 11.5311 0 0.749602 0.0244257
72 1 11.5311 11.5311 0 0.729572 -0.173853
ITEM: TIMESTEP
15
ITEM: NUMBER OF ATOMS
72
ITEM: BOX BOUNDS pp pp pp
0.0000000000000000e+00 1.2579418040663018e+01
0.0000000000000000e+00 1.2579418040663018e+01
-1.0482848367219182e+00 1.0482848367219182e+00
ITEM: ATOMS id type x y z mux muy
1 1 -1.84471e-05 -2.40183e-05 0 0.00998785 0.749933
2 1 1.04829 1.04827 0 -0.566966 -0.490968
3 1 2.09656 -1.86453e-06 0 0.373372 -0.650457
4 1 3.14487 1.04831 0 0.523623 -0.536953
5 1 4.19313 -8.2809e-06 0 0.385992 -0.643048
6 1 5.24143 1.0483 0 0.435853 -0.610354
7 1 6.28971 -5.81399e-06 0 -0.417906 -0.62278
8 1 7.33796 1.04831 0 0.388774 -0.64137
9 1 8.38629 -6.01624e-06 0 -0.70218 0.263522
10 1 9.43455 1.04831 0 0.721154 -0.206003
11 1 10.4828 2.39042e-06 0 0.185742 0.726636
12 1 11.5311 1.0483 0 0.737837 0.134521
13 1 3.01998e-05 2.09659 0 0.654674 -0.365925
15 1 2.09658 2.09654 0 0.732185 -0.162499
17 1 4.19315 2.09658 0 0.483818 0.573079
19 1 6.28973 2.09654 0 0.645046 0.382643
21 1 8.38629 2.09654 0 0.693691 0.285118
23 1 10.4829 2.09656 0 0.692437 0.288151
14 1 1.04829 3.14487 0 -0.495292 0.563193
25 1 -2.02226e-05 4.19317 0 0.686065 -0.30301
27 1 2.09658 4.19314 0 0.149272 -0.734995
16 1 3.14487 3.14487 0 -0.487406 -0.570031
29 1 4.19314 4.19311 0 -0.54513 -0.515106
18 1 5.24141 3.14487 0 0.42414 0.618551
20 1 7.338 3.14488 0 -0.679088 0.318338
31 1 6.28974 4.19313 0 0.336977 0.670035
33 1 8.38626 4.19315 0 0.749465 -0.0283363
22 1 9.43455 3.14485 0 -0.564405 0.49391
35 1 10.4829 4.19316 0 -0.691394 0.290646
24 1 11.5311 3.14483 0 0.698889 0.272129
26 1 1.04829 5.24141 0 0.507207 0.552486
28 1 3.14485 5.24144 0 -0.427783 -0.616037
30 1 5.24139 5.24143 0 0.617597 -0.425527
32 1 7.33796 5.24142 0 0.377794 0.647898
34 1 9.43454 5.24143 0 -0.173047 -0.729763
36 1 11.5311 5.24144 0 -0.228518 -0.714338
37 1 2.4218e-05 6.2897 0 -0.635115 0.39891
38 1 1.04829 7.338 0 -0.512896 -0.547209
39 1 2.09657 6.28971 0 0.507384 0.552324
40 1 3.14481 7.33797 0 0.260789 0.703199
41 1 4.19313 6.28972 0 -0.432873 -0.612471
42 1 5.24141 7.33801 0 -0.661848 0.352784
43 1 6.28972 6.28971 0 0.698414 -0.273346
44 1 7.33796 7.33796 0 0.0313451 0.749345
45 1 8.3863 6.28971 0 0.0879732 -0.744823
46 1 9.43457 7.33799 0 0.740021 0.121938
47 1 10.4829 6.28971 0 0.709014 0.244539
48 1 11.5311 7.33801 0 0.286481 -0.693129
49 1 -8.58597e-06 8.38627 0 -0.351978 0.662277
51 1 2.0966 8.38625 0 -0.612896 0.432271
53 1 4.19314 8.38628 0 -0.74553 0.0817656
55 1 6.28973 8.38626 0 -0.350015 0.663317
57 1 8.38631 8.38631 0 -0.748233 -0.0514508
59 1 10.4828 8.38628 0 -0.473267 0.581824
50 1 1.0483 9.43458 0 -0.500856 -0.55825
61 1 3.6552e-05 10.4829 0 0.377544 0.648044
63 1 2.09656 10.4828 0 -0.60293 -0.446067
52 1 3.14487 9.43456 0 0.075902 0.746149
65 1 4.19311 10.4829 0 -0.358398 0.658825
54 1 5.24142 9.43456 0 0.747853 0.0567098
56 1 7.338 9.43457 0 -0.710025 0.241588
67 1 6.28972 10.4829 0 -0.696863 -0.277276
69 1 8.38628 10.4828 0 -0.615203 -0.428981
58 1 9.43453 9.43456 0 0.495815 -0.562732
71 1 10.4829 10.4829 0 0.537997 -0.522551
60 1 11.5311 9.43453 0 -0.356509 -0.659849
62 1 1.04827 11.5311 0 0.734407 0.152138
64 1 3.14488 11.5311 0 -0.746644 0.0708703
66 1 5.24142 11.5311 0 0.0617186 -0.747456
68 1 7.33799 11.5311 0 -0.0217649 -0.749684
70 1 9.43458 11.5311 0 0.749603 0.0244091
72 1 11.5311 11.5311 0 0.729574 -0.173846
ITEM: TIMESTEP
20
ITEM: NUMBER OF ATOMS
72
ITEM: BOX BOUNDS pp pp pp
0.0000000000000000e+00 1.2579418040663018e+01
0.0000000000000000e+00 1.2579418040663018e+01
-1.0482848367219182e+00 1.0482848367219182e+00
ITEM: ATOMS id type x y z mux muy
1 1 -3.27959e-05 -4.27008e-05 0 0.00996697 0.749934
2 1 1.0483 1.04827 0 -0.5669 -0.491044
3 1 2.09656 -3.31333e-06 0 0.373428 -0.650424
4 1 3.14488 1.04833 0 0.523655 -0.536922
5 1 4.19311 -1.47221e-05 0 0.386009 -0.643037
6 1 5.24143 1.04831 0 0.4359 -0.610321
7 1 6.28971 -1.03356e-05 0 -0.417882 -0.622796
8 1 7.33794 1.04833 0 0.388776 -0.641368
9 1 8.3863 -1.06959e-05 0 -0.702198 0.263472
10 1 9.43453 1.04834 0 0.721155 -0.205998
11 1 10.4828 4.24942e-06 0 0.185795 0.726622
12 1 11.5311 1.0483 0 0.737828 0.13457
13 1 5.36899e-05 2.0966 0 0.654706 -0.365869
15 1 2.0966 2.09651 0 0.732156 -0.162626
17 1 4.19316 2.09658 0 0.483892 0.573017
19 1 6.28974 2.09652 0 0.645086 0.382575
21 1 8.3863 2.09652 0 0.693699 0.285098
23 1 10.4829 2.09656 0 0.692404 0.288231
14 1 1.04829 3.14488 0 -0.495314 0.563173
25 1 -3.59495e-05 4.19319 0 0.68612 -0.302884
27 1 2.09659 4.19314 0 0.149235 -0.735003
16 1 3.14488 3.14487 0 -0.487372 -0.57006
29 1 4.19314 4.19308 0 -0.545144 -0.515091
18 1 5.24139 3.14488 0 0.424156 0.61854
20 1 7.338 3.14489 0 -0.679077 0.318362
31 1 6.28976 4.19312 0 0.337008 0.670019
33 1 8.38625 4.19315 0 0.749462 -0.0283901
22 1 9.43453 3.14484 0 -0.564437 0.493873
35 1 10.4829 4.19317 0 -0.691414 0.290597
24 1 11.5311 3.14481 0 0.698872 0.272174
26 1 1.04829 5.24139 0 0.507174 0.552516
28 1 3.14484 5.24146 0 -0.4278 -0.616025
30 1 5.24137 5.24144 0 0.617595 -0.425531
32 1 7.33793 5.24142 0 0.377854 0.647863
34 1 9.43452 5.24143 0 -0.173023 -0.729769
36 1 11.5311 5.24145 0 -0.228439 -0.714364
37 1 4.30539e-05 6.2897 0 -0.635176 0.398812
38 1 1.0483 7.33801 0 -0.512891 -0.547214
39 1 2.09657 6.28972 0 0.507398 0.552311
40 1 3.14478 7.33795 0 0.260765 0.703208
41 1 4.19312 6.28972 0 -0.432803 -0.612521
42 1 5.2414 7.33802 0 -0.661882 0.352722
43 1 6.28973 6.28971 0 0.698453 -0.273246
44 1 7.33793 7.33794 0 0.031331 0.749345
45 1 8.38631 6.28971 0 0.0880802 -0.74481
46 1 9.43458 7.33799 0 0.740029 0.121889
47 1 10.4829 6.28971 0 0.70902 0.244521
48 1 11.5311 7.33801 0 0.286509 -0.693118
49 1 -1.52652e-05 8.38627 0 -0.352014 0.662258
51 1 2.09662 8.38624 0 -0.612914 0.432246
53 1 4.19315 8.38628 0 -0.745518 0.0818735
55 1 6.28975 8.38625 0 -0.35011 0.663267
57 1 8.38633 8.38633 0 -0.748233 -0.0514592
59 1 10.4828 8.38628 0 -0.473292 0.581803
50 1 1.04831 9.4346 0 -0.500887 -0.558222
61 1 6.49848e-05 10.4829 0 0.377548 0.648041
63 1 2.09654 10.4828 0 -0.602896 -0.446112
52 1 3.14489 9.43456 0 0.0759469 0.746145
65 1 4.19309 10.4829 0 -0.358423 0.658812
54 1 5.24141 9.43455 0 0.747855 0.0566762
56 1 7.33801 9.43458 0 -0.710013 0.241623
67 1 6.28973 10.4829 0 -0.696885 -0.277221
69 1 8.38628 10.4828 0 -0.615153 -0.429054
58 1 9.4345 9.43456 0 0.495776 -0.562766
71 1 10.4829 10.4829 0 0.538034 -0.522512
60 1 11.5311 9.43451 0 -0.356471 -0.65987
62 1 1.04826 11.5311 0 0.734396 0.152191
64 1 3.1449 11.5311 0 -0.746646 0.0708455
66 1 5.24141 11.5312 0 0.0617119 -0.747457
68 1 7.33798 11.5312 0 -0.0217249 -0.749685
70 1 9.4346 11.5311 0 0.749603 0.0243859
72 1 11.5312 11.5311 0 0.729576 -0.173836
ITEM: TIMESTEP
25
ITEM: NUMBER OF ATOMS
72
ITEM: BOX BOUNDS pp pp pp
0.0000000000000000e+00 1.2579418040663018e+01
0.0000000000000000e+00 1.2579418040663018e+01
-1.0482848367219182e+00 1.0482848367219182e+00
ITEM: ATOMS id type x y z mux muy
1 1 -5.1246e-05 -6.67234e-05 0 0.00994013 0.749934
2 1 1.04831 1.04825 0 -0.566815 -0.491142
3 1 2.09656 -5.17429e-06 0 0.3735 -0.650383
4 1 3.14489 1.04835 0 0.523696 -0.536882
5 1 4.1931 -2.30044e-05 0 0.386031 -0.643024
6 1 5.24144 1.04833 0 0.435959 -0.610278
7 1 6.28971 -1.61487e-05 0 -0.417851 -0.622817
8 1 7.3379 1.04836 0 0.388779 -0.641366
9 1 8.38631 -1.67129e-05 0 -0.702222 0.263408
10 1 9.43451 1.04837 0 0.721157 -0.205992
11 1 10.4828 6.63931e-06 0 0.185863 0.726605
12 1 11.5311 1.04831 0 0.737817 0.134633
13 1 8.38933e-05 2.09662 0 0.654747 -0.365795
15 1 2.09661 2.09648 0 0.73212 -0.162789
17 1 4.19317 2.09659 0 0.483986 0.572938
19 1 6.28976 2.09649 0 0.645139 0.382487
21 1 8.38631 2.09649 0 0.69371 0.285073
23 1 10.4829 2.09655 0 0.69236 0.288335
14 1 1.04829 3.14489 0 -0.495343 0.563148
25 1 -5.61674e-05 4.19322 0 0.686192 -0.302722
27 1 2.09661 4.19314 0 0.149187 -0.735012
16 1 3.14489 3.14488 0 -0.487329 -0.570097
29 1 4.19314 4.19305 0 -0.545162 -0.515071
18 1 5.24138 3.14489 0 0.424178 0.618525
20 1 7.33801 3.14491 0 -0.679062 0.318393
31 1 6.28978 4.19311 0 0.337047 0.669999
33 1 8.38624 4.19316 0 0.74946 -0.0284592
22 1 9.43452 3.14483 0 -0.564479 0.493826
35 1 10.4829 4.19319 0 -0.69144 0.290535
24 1 11.5311 3.14478 0 0.698849 0.272231
26 1 1.0483 5.24138 0 0.507132 0.552555
28 1 3.14484 5.24148 0 -0.427823 -0.61601
30 1 5.24134 5.24144 0 0.617592 -0.425535
32 1 7.3379 5.24142 0 0.377932 0.647817
34 1 9.43449 5.24143 0 -0.172993 -0.729776
36 1 11.5311 5.24146 0 -0.228336 -0.714397
37 1 6.72712e-05 6.28969 0 -0.635255 0.398687
38 1 1.04831 7.33801 0 -0.512883 -0.547221
39 1 2.09658 6.28972 0 0.507416 0.552295
40 1 3.14474 7.33793 0 0.260734 0.703219
41 1 4.19311 6.28973 0 -0.432714 -0.612584
42 1 5.24138 7.33803 0 -0.661925 0.352641
43 1 6.28974 6.28971 0 0.698504 -0.273117
44 1 7.33789 7.33791 0 0.031313 0.749346
45 1 8.38633 6.28971 0 0.0882178 -0.744794
46 1 9.43459 7.33799 0 0.740039 0.121826
47 1 10.4829 6.28971 0 0.709028 0.244497
48 1 11.5312 7.33803 0 0.286543 -0.693104
49 1 -2.38544e-05 8.38626 0 -0.35206 0.662234
51 1 2.09664 8.38621 0 -0.612937 0.432213
53 1 4.19315 8.38628 0 -0.745503 0.0820121
55 1 6.28977 8.38623 0 -0.350233 0.663202
57 1 8.38636 8.38636 0 -0.748232 -0.05147
59 1 10.4828 8.38628 0 -0.473324 0.581777
50 1 1.04833 9.43462 0 -0.500928 -0.558186
61 1 0.000101546 10.4829 0 0.377554 0.648038
63 1 2.09653 10.4828 0 -0.602853 -0.446171
52 1 3.1449 9.43455 0 0.0760046 0.746139
65 1 4.19306 10.483 0 -0.358455 0.658794
54 1 5.2414 9.43455 0 0.747859 0.0566331
56 1 7.33802 9.43459 0 -0.709998 0.241667
67 1 6.28974 10.4829 0 -0.696913 -0.277151
69 1 8.38628 10.4828 0 -0.615088 -0.429147
58 1 9.43446 9.43456 0 0.495727 -0.56281
71 1 10.4829 10.4829 0 0.538082 -0.522463
60 1 11.5311 9.43448 0 -0.356423 -0.659896
62 1 1.04825 11.5311 0 0.734382 0.152259
64 1 3.14493 11.531 0 -0.746649 0.0708136
66 1 5.24141 11.5312 0 0.0617033 -0.747457
68 1 7.33797 11.5312 0 -0.0216734 -0.749687
70 1 9.43462 11.5311 0 0.749604 0.024356
72 1 11.5312 11.5311 0 0.729579 -0.173823
ITEM: TIMESTEP
30
ITEM: NUMBER OF ATOMS
72
ITEM: BOX BOUNDS pp pp pp
0.0000000000000000e+00 1.2579418040663018e+01
0.0000000000000000e+00 1.2579418040663018e+01
-1.0482848367219182e+00 1.0482848367219182e+00
ITEM: ATOMS id type x y z mux muy
1 1 -7.37983e-05 -9.60875e-05 0 0.00990732 0.749935
2 1 1.04832 1.04824 0 -0.566711 -0.491263
3 1 2.09655 -7.44606e-06 0 0.373588 -0.650332
4 1 3.1449 1.04838 0 0.523746 -0.536833
5 1 4.19308 -3.31283e-05 0 0.386058 -0.643008
6 1 5.24145 1.04835 0 0.436033 -0.610226
7 1 6.28971 -2.3253e-05 0 -0.417813 -0.622842
8 1 7.33787 1.04839 0 0.388783 -0.641364
9 1 8.38632 -2.40677e-05 0 -0.702252 0.26333
10 1 9.43449 1.0484 0 0.721159 -0.205985
11 1 10.4828 9.55988e-06 0 0.185947 0.726584
12 1 11.531 1.04833 0 0.737803 0.13471
13 1 0.000120811 2.09664 0 0.654797 -0.365706
15 1 2.09663 2.09644 0 0.732076 -0.162989
17 1 4.19318 2.0966 0 0.484101 0.57284
19 1 6.28978 2.09646 0 0.645203 0.382379
21 1 8.38632 2.09646 0 0.693723 0.285042
23 1 10.4829 2.09654 0 0.692307 0.288463
14 1 1.04829 3.14491 0 -0.495377 0.563117
25 1 -8.08747e-05 4.19325 0 0.686279 -0.302523
27 1 2.09663 4.19314 0 0.149129 -0.735024
16 1 3.14491 3.1449 0 -0.487276 -0.570142
29 1 4.19314 4.19301 0 -0.545184 -0.515048
18 1 5.24136 3.1449 0 0.424204 0.618507
20 1 7.33802 3.14494 0 -0.679045 0.318431
31 1 6.28982 4.1931 0 0.337096 0.669975
33 1 8.38622 4.19317 0 0.749457 -0.0285437
22 1 9.4345 3.14482 0 -0.564529 0.493768
35 1 10.483 4.19322 0 -0.691472 0.290459
24 1 11.5311 3.14475 0 0.698822 0.272301
26 1 1.04831 5.24135 0 0.507081 0.552602
28 1 3.14483 5.2415 0 -0.42785 -0.615991
30 1 5.2413 5.24145 0 0.617588 -0.425541
32 1 7.33786 5.24142 0 0.378027 0.647762
34 1 9.43446 5.24143 0 -0.172956 -0.729785
36 1 11.5311 5.24148 0 -0.228211 -0.714437
37 1 9.68697e-05 6.28968 0 -0.635351 0.398533
38 1 1.04832 7.33802 0 -0.512874 -0.547229
39 1 2.09658 6.28973 0 0.507438 0.552275
40 1 3.14469 7.3379 0 0.260697 0.703233
41 1 4.1931 6.28974 0 -0.432605 -0.612661
42 1 5.24137 7.33805 0 -0.661977 0.352543
43 1 6.28976 6.28971 0 0.698565 -0.272959
44 1 7.33785 7.33787 0 0.0312909 0.749347
45 1 8.38635 6.28971 0 0.0883859 -0.744774
46 1 9.43461 7.33799 0 0.740052 0.121749
47 1 10.4829 6.28972 0 0.709038 0.244468
48 1 11.5312 7.33804 0 0.286586 -0.693086
49 1 -3.43547e-05 8.38625 0 -0.352116 0.662204
51 1 2.09668 8.38618 0 -0.612966 0.432172
53 1 4.19316 8.38627 0 -0.745484 0.0821816
55 1 6.2898 8.38621 0 -0.350382 0.663123
57 1 8.3864 8.38639 0 -0.748231 -0.0514831
59 1 10.4828 8.38628 0 -0.473364 0.581744
50 1 1.04835 9.43464 0 -0.500977 -0.558142
61 1 0.000146238 10.4829 0 0.377561 0.648033
63 1 2.09651 10.4828 0 -0.6028 -0.446243
52 1 3.14493 9.43455 0 0.0760752 0.746132
65 1 4.19303 10.483 0 -0.358494 0.658773
54 1 5.2414 9.43454 0 0.747863 0.0565803
56 1 7.33803 9.4346 0 -0.709979 0.241722
67 1 6.28976 10.4829 0 -0.696947 -0.277065
69 1 8.38627 10.4827 0 -0.615008 -0.429261
58 1 9.43442 9.43456 0 0.495666 -0.562864
71 1 10.4829 10.4829 0 0.538141 -0.522402
60 1 11.531 9.43445 0 -0.356363 -0.659928
62 1 1.04823 11.531 0 0.734365 0.152343
64 1 3.14496 11.531 0 -0.746653 0.0707747
66 1 5.2414 11.5312 0 0.0616929 -0.747458
68 1 7.33797 11.5312 0 -0.0216105 -0.749689
70 1 9.43465 11.5311 0 0.749606 0.0243195
72 1 11.5312 11.5311 0 0.729583 -0.173807
ITEM: TIMESTEP
35
ITEM: NUMBER OF ATOMS
72
ITEM: BOX BOUNDS pp pp pp
0.0000000000000000e+00 1.2579418040663018e+01
0.0000000000000000e+00 1.2579418040663018e+01
-1.0482848367219182e+00 1.0482848367219182e+00
ITEM: ATOMS id type x y z mux muy
1 1 -0.000100454 -0.000130795 0 0.00986852 0.749935
2 1 1.04833 1.04823 0 -0.566588 -0.491405
3 1 2.09654 -1.0127e-05 0 0.373692 -0.650273
4 1 3.14492 1.04842 0 0.523806 -0.536775
5 1 4.19306 -4.50944e-05 0 0.38609 -0.642989
6 1 5.24146 1.04837 0 0.436119 -0.610164
7 1 6.28971 -3.16479e-05 0 -0.417768 -0.622872
8 1 7.33782 1.04842 0 0.388787 -0.641362
9 1 8.38633 -3.27606e-05 0 -0.702286 0.263238
10 1 9.43446 1.04844 0 0.721161 -0.205977
11 1 10.4829 1.30109e-05 0 0.186046 0.726558
12 1 11.531 1.04834 0 0.737786 0.134801
13 1 0.000164445 2.09667 0 0.654856 -0.365601
15 1 2.09665 2.09639 0 0.732023 -0.163225
17 1 4.19319 2.09661 0 0.484237 0.572725
19 1 6.2898 2.09642 0 0.645278 0.382252
21 1 8.38633 2.09642 0 0.693738 0.285006
23 1 10.4829 2.09653 0 0.692245 0.288613
14 1 1.0483 3.14492 0 -0.495418 0.563081
25 1 -0.000110069 4.19329 0 0.686383 -0.302289
27 1 2.09665 4.19314 0 0.14906 -0.735038
16 1 3.14492 3.14491 0 -0.487214 -0.570195
29 1 4.19314 4.19297 0 -0.54521 -0.51502
18 1 5.24133 3.14492 0 0.424234 0.618486
20 1 7.33803 3.14497 0 -0.679023 0.318476
31 1 6.28985 4.19309 0 0.337153 0.669946
33 1 8.3862 4.19318 0 0.749453 -0.0286435
22 1 9.43447 3.1448 0 -0.564589 0.493699
35 1 10.483 4.19324 0 -0.69151 0.290369
24 1 11.5311 3.14471 0 0.69879 0.272384
26 1 1.04831 5.24133 0 0.50702 0.552657
28 1 3.14482 5.24153 0 -0.427882 -0.615968
30 1 5.24126 5.24146 0 0.617584 -0.425547
32 1 7.33781 5.24141 0 0.378139 0.647696
34 1 9.43442 5.24143 0 -0.172912 -0.729796
36 1 11.5311 5.24149 0 -0.228063 -0.714484
37 1 0.000131849 6.28967 0 -0.635465 0.398352
38 1 1.04834 7.33803 0 -0.512864 -0.547239
39 1 2.09658 6.28973 0 0.507463 0.552251
40 1 3.14464 7.33787 0 0.260652 0.70325
41 1 4.19308 6.28975 0 -0.432475 -0.612752
42 1 5.24135 7.33807 0 -0.662039 0.352427
43 1 6.28978 6.28971 0 0.698638 -0.272773
44 1 7.33779 7.33783 0 0.0312649 0.749348
45 1 8.38638 6.28971 0 0.0885846 -0.74475
46 1 9.43462 7.33798 0 0.740067 0.121658
47 1 10.4829 6.28972 0 0.70905 0.244433
48 1 11.5312 7.33806 0 0.286636 -0.693065
49 1 -4.67677e-05 8.38625 0 -0.352183 0.662169
51 1 2.09671 8.38615 0 -0.612999 0.432125
53 1 4.19317 8.38627 0 -0.745462 0.0823818
55 1 6.28984 8.38619 0 -0.350558 0.66303
57 1 8.38644 8.38643 0 -0.74823 -0.0514987
59 1 10.4827 8.38628 0 -0.473411 0.581706
50 1 1.04838 9.43467 0 -0.501035 -0.558089
61 1 0.000199065 10.4829 0 0.37757 0.648028
63 1 2.09649 10.4828 0 -0.602737 -0.446327
52 1 3.14495 9.43454 0 0.0761586 0.746123
65 1 4.19299 10.4831 0 -0.358539 0.658748
54 1 5.24138 9.43454 0 0.747867 0.056518
56 1 7.33804 9.43462 0 -0.709957 0.241786
67 1 6.28977 10.4829 0 -0.696987 -0.276964
69 1 8.38627 10.4827 0 -0.614914 -0.429395
58 1 9.43437 9.43456 0 0.495594 -0.562927
71 1 10.4829 10.483 0 0.538211 -0.522331
60 1 11.531 9.43441 0 -0.356293 -0.659966
62 1 1.04821 11.531 0 0.734344 0.152441
64 1 3.145 11.5309 0 -0.746658 0.0707287
66 1 5.24139 11.5312 0 0.0616805 -0.747459
68 1 7.33796 11.5312 0 -0.0215362 -0.749691
70 1 9.43468 11.5311 0 0.749607 0.0242764
72 1 11.5312 11.5312 0 0.729587 -0.173788
ITEM: TIMESTEP
40
ITEM: NUMBER OF ATOMS
72
ITEM: BOX BOUNDS pp pp pp
0.0000000000000000e+00 1.2579418040663018e+01
0.0000000000000000e+00 1.2579418040663018e+01
-1.0482848367219182e+00 1.0482848367219182e+00
ITEM: ATOMS id type x y z mux muy
1 1 -0.000131215 -0.000170849 0 0.00982375 0.749936
2 1 1.04834 1.04821 0 -0.566446 -0.491568
3 1 2.09653 -1.32152e-05 0 0.373812 -0.650203
4 1 3.14494 1.04846 0 0.523874 -0.536709
5 1 4.19304 -5.89034e-05 0 0.386127 -0.642967
6 1 5.24147 1.0484 0 0.436219 -0.610093
7 1 6.28971 -4.13331e-05 0 -0.417716 -0.622907
8 1 7.33776 1.04847 0 0.388792 -0.641358
9 1 8.38635 -4.27921e-05 0 -0.702326 0.263131
10 1 9.43443 1.04849 0 0.721164 -0.205967
11 1 10.4829 1.69921e-05 0 0.18616 0.726529
12 1 11.5309 1.04836 0 0.737767 0.134906
13 1 0.000214798 2.0967 0 0.654924 -0.365479
15 1 2.09668 2.09633 0 0.731962 -0.163498
17 1 4.19321 2.09662 0 0.484394 0.572593
19 1 6.28983 2.09637 0 0.645365 0.382105
21 1 8.38635 2.09637 0 0.693755 0.284963
23 1 10.4829 2.09652 0 0.692172 0.288786
14 1 1.0483 3.14494 0 -0.495466 0.56304
25 1 -0.000143748 4.19333 0 0.686502 -0.302019
27 1 2.09667 4.19314 0 0.14898 -0.735054
16 1 3.14495 3.14493 0 -0.487142 -0.570256
29 1 4.19314 4.19291 0 -0.54524 -0.514988
18 1 5.2413 3.14494 0 0.42427 0.618462
20 1 7.33804 3.145 0 -0.678999 0.318528
31 1 6.2899 4.19307 0 0.337219 0.669913
33 1 8.38618 4.19319 0 0.749448 -0.0287588
22 1 9.43444 3.14479 0 -0.564658 0.49362
35 1 10.4831 4.19328 0 -0.691554 0.290265
24 1 11.531 3.14467 0 0.698752 0.272479
26 1 1.04832 5.2413 0 0.506951 0.552722
28 1 3.1448 5.24157 0 -0.42792 -0.615942
30 1 5.24121 5.24147 0 0.617578 -0.425555
32 1 7.33776 5.24141 0 0.378269 0.647621
34 1 9.43438 5.24143 0 -0.172861 -0.729808
36 1 11.5312 5.24152 0 -0.227892 -0.714538
37 1 0.000172209 6.28966 0 -0.635596 0.398143
38 1 1.04835 7.33804 0 -0.512851 -0.547251
39 1 2.09659 6.28974 0 0.507493 0.552223
40 1 3.14457 7.33783 0 0.260601 0.703269
41 1 4.19307 6.28977 0 -0.432326 -0.612857
42 1 5.24132 7.33809 0 -0.66211 0.352293
43 1 6.2898 6.28971 0 0.698722 -0.272557
44 1 7.33773 7.33778 0 0.0312348 0.749349
45 1 8.38641 6.28971 0 0.0888138 -0.744723
46 1 9.43464 7.33798 0 0.740084 0.121553
47 1 10.4829 6.28972 0 0.709064 0.244393
48 1 11.5312 7.33808 0 0.286694 -0.693041
49 1 -6.1095e-05 8.38624 0 -0.352259 0.662128
51 1 2.09676 8.38611 0 -0.613038 0.43207
53 1 4.19317 8.38627 0 -0.745436 0.0826129
55 1 6.28988 8.38616 0 -0.350761 0.662923
57 1 8.38649 8.38648 0 -0.748229 -0.0515167
59 1 10.4827 8.38628 0 -0.473465 0.581662
50 1 1.0484 9.4347 0 -0.501103 -0.558029
61 1 0.000260033 10.483 0 0.37758 0.648023
63 1 2.09647 10.4828 0 -0.602665 -0.446425
52 1 3.14498 9.43454 0 0.0762548 0.746113
65 1 4.19294 10.4831 0 -0.358592 0.65872
54 1 5.24137 9.43453 0 0.747873 0.056446
56 1 7.33806 9.43463 0 -0.709932 0.241861
67 1 6.28979 10.4829 0 -0.697033 -0.276847
69 1 8.38627 10.4827 0 -0.614806 -0.42955
58 1 9.43431 9.43455 0 0.49551 -0.563
71 1 10.4829 10.483 0 0.538291 -0.522248
60 1 11.531 9.43436 0 -0.356212 -0.66001
62 1 1.04819 11.5309 0 0.734321 0.152555
64 1 3.14504 11.5308 0 -0.746663 0.0706756
66 1 5.24138 11.5312 0 0.0616662 -0.747461
68 1 7.33794 11.5312 0 -0.0214505 -0.749693
70 1 9.43471 11.5311 0 0.749609 0.0242267
72 1 11.5313 11.5312 0 0.729593 -0.173766
ITEM: TIMESTEP
45
ITEM: NUMBER OF ATOMS
72
ITEM: BOX BOUNDS pp pp pp
0.0000000000000000e+00 1.2579418040663018e+01
0.0000000000000000e+00 1.2579418040663018e+01
-1.0482848367219182e+00 1.0482848367219182e+00
ITEM: ATOMS id type x y z mux muy
1 1 -0.000166084 -0.000216251 0 0.00977299 0.749936
2 1 1.04836 1.04819 0 -0.566284 -0.491754
3 1 2.09652 -1.67083e-05 0 0.373948 -0.650125
4 1 3.14496 1.04851 0 0.523951 -0.536633
5 1 4.19301 -7.45564e-05 0 0.386168 -0.642942