ITEM: TIMESTEP
0
ITEM: NUMBER OF ATOMS
18
ITEM: BOX BOUNDS pp pp pp
0.0000000000000000e+00 9.2582009977255151e+00
0.0000000000000000e+00 9.2582009977255151e+00
-1.5430334996209192e+00 1.5430334996209192e+00
ITEM: ATOMS id type x y z mux muy
1 1 0 0 0 0.0100147 0.749933
3 1 3.08607 0 0 0.587082 0.466727
5 1 6.17213 0 0 -0.491205 -0.56676
2 1 1.54303 1.54303 0 -0.564086 -0.494274
4 1 4.6291 1.54303 0 0.735757 0.14547
6 1 7.71517 1.54303 0 0.648655 -0.376493
7 1 0 3.08607 0 0.19667 -0.723755
9 1 3.08607 3.08607 0 -0.676409 -0.323991
11 1 6.17213 3.08607 0 0.448705 0.600969
8 1 1.54303 4.6291 0 0.211887 -0.719447
10 1 4.6291 4.6291 0 -0.712463 0.234299
12 1 7.71517 4.6291 0 0.50685 0.552814
13 1 0 6.17213 0 0.433745 0.611854
15 1 3.08607 6.17213 0 0.341828 0.667573
17 1 6.17213 6.17213 0 0.659865 0.35648
14 1 1.54303 7.71517 0 0.495437 -0.563065
16 1 4.6291 7.71517 0 0.563605 -0.494823
18 1 7.71517 7.71517 0 0.37057 0.652057
ITEM: TIMESTEP
5
ITEM: NUMBER OF ATOMS
18
ITEM: BOX BOUNDS pp pp pp
0.0000000000000000e+00 9.2582009977255151e+00
0.0000000000000000e+00 9.2582009977255151e+00
-1.5430334996209192e+00 1.5430334996209192e+00
ITEM: ATOMS id type x y z mux muy
1 1 -6.97941e-07 -2.61834e-07 0 0.0100183 0.749933
3 1 3.08607 1.85431e-07 0 0.587082 0.466727
5 1 6.17213 -1.94131e-07 0 -0.491207 -0.566759
2 1 1.54303 1.54303 0 -0.564084 -0.494277
4 1 4.6291 1.54303 0 0.735756 0.145475
6 1 7.71517 1.54303 0 0.648652 -0.376497
7 1 3.43968e-07 3.08607 0 0.196668 -0.723755
9 1 3.08607 3.08607 0 -0.676407 -0.323997
11 1 6.17213 3.08607 0 0.448705 0.600969
8 1 1.54303 4.6291 0 0.211887 -0.719447
10 1 4.6291 4.6291 0 -0.712464 0.234298
12 1 7.71517 4.6291 0 0.506852 0.552812
13 1 -5.68466e-07 6.17213 0 0.433745 0.611854
15 1 3.08607 6.17213 0 0.341826 0.667574
17 1 6.17213 6.17213 0 0.659867 0.356476
14 1 1.54303 7.71517 0 0.495439 -0.563064
16 1 4.6291 7.71517 0 0.563603 -0.494825
18 1 7.71517 7.71517 0 0.370571 0.652056
ITEM: TIMESTEP
10
ITEM: NUMBER OF ATOMS
18
ITEM: BOX BOUNDS pp pp pp
0.0000000000000000e+00 9.2582009977255151e+00
0.0000000000000000e+00 9.2582009977255151e+00
-1.5430334996209192e+00 1.5430334996209192e+00
ITEM: ATOMS id type x y z mux muy
1 1 -2.79177e-06 -1.04734e-06 0 0.0100293 0.749933
3 1 3.08607 7.41727e-07 0 0.587082 0.466727
5 1 6.17213 -7.76522e-07 0 -0.491211 -0.566756
2 1 1.54304 1.54303 0 -0.564076 -0.494286
4 1 4.6291 1.54303 0 0.735753 0.145488
6 1 7.71517 1.54303 0 0.648645 -0.37651
7 1 1.37586e-06 3.08607 0 0.196663 -0.723757
9 1 3.08607 3.08607 0 -0.676399 -0.324013
11 1 6.17213 3.08607 0 0.448706 0.600968
8 1 1.54303 4.6291 0 0.211887 -0.719447
10 1 4.6291 4.6291 0 -0.712465 0.234293
12 1 7.71517 4.6291 0 0.50686 0.552805
13 1 -2.27386e-06 6.17213 0 0.433747 0.611853
15 1 3.08607 6.17213 0 0.34182 0.667577
17 1 6.17213 6.17214 0 0.659872 0.356467
14 1 1.54303 7.71517 0 0.495445 -0.563058
16 1 4.6291 7.71517 0 0.563598 -0.494831
18 1 7.71517 7.71517 0 0.370575 0.652054
ITEM: TIMESTEP
15
ITEM: NUMBER OF ATOMS
18
ITEM: BOX BOUNDS pp pp pp
0.0000000000000000e+00 9.2582009977255151e+00
0.0000000000000000e+00 9.2582009977255151e+00
-1.5430334996209192e+00 1.5430334996209192e+00
ITEM: ATOMS id type x y z mux muy
1 1 -6.28149e-06 -2.35652e-06 0 0.0100475 0.749933
3 1 3.08607 1.6689e-06 0 0.587083 0.466727
5 1 6.17213 -1.74716e-06 0 -0.491218 -0.566749
2 1 1.54304 1.54303 0 -0.564063 -0.4943
4 1 4.6291 1.54303 0 0.735749 0.145511
6 1 7.71516 1.54304 0 0.648633 -0.376531
7 1 3.09568e-06 3.08607 0 0.196654 -0.723759
9 1 3.08607 3.08606 0 -0.676386 -0.32404
11 1 6.17213 3.08607 0 0.448707 0.600968
8 1 1.54303 4.62911 0 0.211887 -0.719447
10 1 4.6291 4.6291 0 -0.712468 0.234285
12 1 7.71517 4.6291 0 0.506873 0.552793
13 1 -5.11616e-06 6.17213 0 0.433749 0.611851
15 1 3.08607 6.17214 0 0.341811 0.667582
17 1 6.17214 6.17214 0 0.659881 0.35645
14 1 1.54303 7.71517 0 0.495455 -0.563049
16 1 4.6291 7.71516 0 0.563589 -0.494841
18 1 7.71517 7.71517 0 0.370581 0.65205
ITEM: TIMESTEP
20
ITEM: NUMBER OF ATOMS
18
ITEM: BOX BOUNDS pp pp pp
0.0000000000000000e+00 9.2582009977255151e+00
0.0000000000000000e+00 9.2582009977255151e+00
-1.5430334996209192e+00 1.5430334996209192e+00
ITEM: ATOMS id type x y z mux muy
1 1 -1.11671e-05 -4.18941e-06 0 0.010073 0.749932
3 1 3.08607 2.96696e-06 0 0.587083 0.466727
5 1 6.17213 -3.10605e-06 0 -0.491228 -0.566741
2 1 1.54305 1.54304 0 -0.564045 -0.494321
4 1 4.6291 1.54303 0 0.735743 0.145544
6 1 7.71516 1.54304 0 0.648615 -0.376561
7 1 5.50337e-06 3.08607 0 0.196642 -0.723762
9 1 3.08607 3.08606 0 -0.676368 -0.324077
11 1 6.17213 3.08606 0 0.448708 0.600967
8 1 1.54303 4.62911 0 0.211887 -0.719447
10 1 4.6291 4.62909 0 -0.712472 0.234274
12 1 7.71517 4.6291 0 0.506891 0.552776
13 1 -9.09536e-06 6.17213 0 0.433753 0.611848
15 1 3.08608 6.17214 0 0.341797 0.667589
17 1 6.17214 6.17215 0 0.659894 0.356427
14 1 1.54303 7.71516 0 0.495469 -0.563036
16 1 4.6291 7.71516 0 0.563577 -0.494855
18 1 7.71517 7.71517 0 0.370589 0.652046
ITEM: TIMESTEP
25
ITEM: NUMBER OF ATOMS
18
ITEM: BOX BOUNDS pp pp pp
0.0000000000000000e+00 9.2582009977255151e+00
0.0000000000000000e+00 9.2582009977255151e+00
-1.5430334996209192e+00 1.5430334996209192e+00
ITEM: ATOMS id type x y z mux muy
1 1 -1.74487e-05 -6.54601e-06 0 0.0101057 0.749932
3 1 3.08607 4.63593e-06 0 0.587083 0.466726
5 1 6.17213 -4.85315e-06 0 -0.49124 -0.56673
2 1 1.54305 1.54304 0 -0.564022 -0.494347
4 1 4.6291 1.54303 0 0.735734 0.145585
6 1 7.71516 1.54304 0 0.648593 -0.376599
7 1 8.59892e-06 3.08608 0 0.196626 -0.723767
9 1 3.08607 3.08606 0 -0.676345 -0.324126
11 1 6.17213 3.08606 0 0.44871 0.600965
8 1 1.54303 4.62912 0 0.211887 -0.719447
10 1 4.6291 4.62909 0 -0.712476 0.23426
12 1 7.71517 4.62909 0 0.506914 0.552755
13 1 -1.42114e-05 6.17212 0 0.433758 0.611845
15 1 3.08608 6.17214 0 0.34178 0.667597
17 1 6.17214 6.17216 0 0.65991 0.356397
14 1 1.54303 7.71516 0 0.495488 -0.56302
16 1 4.62911 7.71516 0 0.563561 -0.494873
18 1 7.71516 7.71517 0 0.3706 0.652039
ITEM: TIMESTEP
30
ITEM: NUMBER OF ATOMS
18
ITEM: BOX BOUNDS pp pp pp
0.0000000000000000e+00 9.2582009977255151e+00
0.0000000000000000e+00 9.2582009977255151e+00
-1.5430334996209192e+00 1.5430334996209192e+00
ITEM: ATOMS id type x y z mux muy
1 1 -2.51262e-05 -9.42636e-06 0 0.0101458 0.749931
3 1 3.08607 6.67585e-06 0 0.587083 0.466726
5 1 6.17213 -6.98845e-06 0 -0.491256 -0.566717
2 1 1.54306 1.54304 0 -0.563994 -0.494379
4 1 4.6291 1.54303 0 0.735724 0.145636
6 1 7.71516 1.54304 0 0.648566 -0.376646
7 1 1.23823e-05 3.08608 0 0.196607 -0.723772
9 1 3.08607 3.08606 0 -0.676317 -0.324185
11 1 6.17212 3.08606 0 0.448712 0.600964
8 1 1.54302 4.62913 0 0.211887 -0.719447
10 1 4.6291 4.62908 0 -0.712482 0.234242
12 1 7.71517 4.62909 0 0.506943 0.552729
13 1 -2.04642e-05 6.17212 0 0.433763 0.611841
15 1 3.08609 6.17214 0 0.341759 0.667608
17 1 6.17214 6.17217 0 0.659929 0.356361
14 1 1.54304 7.71516 0 0.495511 -0.563
16 1 4.62911 7.71515 0 0.563542 -0.494895
18 1 7.71516 7.71517 0 0.370614 0.652032
ITEM: TIMESTEP
35
ITEM: NUMBER OF ATOMS
18
ITEM: BOX BOUNDS pp pp pp
0.0000000000000000e+00 9.2582009977255151e+00
0.0000000000000000e+00 9.2582009977255151e+00
-1.5430334996209192e+00 1.5430334996209192e+00
ITEM: ATOMS id type x y z mux muy
1 1 -3.41997e-05 -1.28305e-05 0 0.0101931 0.749931
3 1 3.08607 9.08675e-06 0 0.587083 0.466726
5 1 6.17212 -9.51192e-06 0 -0.491274 -0.566701
2 1 1.54307 1.54304 0 -0.563961 -0.494417
4 1 4.6291 1.54303 0 0.735712 0.145695
6 1 7.71515 1.54305 0 0.648534 -0.376701
7 1 1.68534e-05 3.08609 0 0.196585 -0.723778
9 1 3.08606 3.08605 0 -0.676283 -0.324254
11 1 6.17212 3.08606 0 0.448715 0.600962
8 1 1.54302 4.62914 0 0.211888 -0.719447
10 1 4.62911 4.62908 0 -0.712489 0.234221
12 1 7.71517 4.62908 0 0.506976 0.552698
13 1 -2.78538e-05 6.17211 0 0.43377 0.611836
15 1 3.0861 6.17214 0 0.341735 0.667621
17 1 6.17214 6.17218 0 0.659952 0.356318
14 1 1.54304 7.71516 0 0.495537 -0.562977
16 1 4.62911 7.71514 0 0.563519 -0.494921
18 1 7.71516 7.71517 0 0.370629 0.652023
ITEM: TIMESTEP
40
ITEM: NUMBER OF ATOMS
18
ITEM: BOX BOUNDS pp pp pp
0.0000000000000000e+00 9.2582009977255151e+00
0.0000000000000000e+00 9.2582009977255151e+00
-1.5430334996209192e+00 1.5430334996209192e+00
ITEM: ATOMS id type x y z mux muy
1 1 -4.46693e-05 -1.67585e-05 0 0.0102478 0.74993
3 1 3.08607 1.18687e-05 0 0.587084 0.466725
5 1 6.17212 -1.24235e-05 0 -0.491295 -0.566683
2 1 1.54308 1.54304 0 -0.563923 -0.49446
4 1 4.62911 1.54302 0 0.735699 0.145764
6 1 7.71515 1.54305 0 0.648497 -0.376764
7 1 2.20121e-05 3.0861 0 0.196559 -0.723785
9 1 3.08606 3.08605 0 -0.676245 -0.324335
11 1 6.17211 3.08606 0 0.448718 0.60096
8 1 1.54301 4.62915 0 0.211888 -0.719447
10 1 4.62911 4.62907 0 -0.712497 0.234198
12 1 7.71518 4.62908 0 0.507015 0.552662
13 1 -3.63801e-05 6.1721 0 0.433778 0.611831
15 1 3.08611 6.17215 0 0.341706 0.667635
17 1 6.17214 6.17219 0 0.659979 0.356269
14 1 1.54304 7.71515 0 0.495568 -0.562949
16 1 4.62912 7.71514 0 0.563492 -0.494951
18 1 7.71516 7.71518 0 0.370648 0.652012
ITEM: TIMESTEP
45
ITEM: NUMBER OF ATOMS
18
ITEM: BOX BOUNDS pp pp pp
0.0000000000000000e+00 9.2582009977255151e+00
0.0000000000000000e+00 9.2582009977255151e+00
-1.5430334996209192e+00 1.5430334996209192e+00
ITEM: ATOMS id type x y z mux muy
1 1 -5.6535e-05 -2.12103e-05 0 0.0103097 0.749929
3 1 3.08607 1.50216e-05 0 0.587084 0.466725
5 1 6.17212 -1.57232e-05 0 -0.491319 -0.566662
2 1 1.54309 1.54304 0 -0.56388 -0.49451
4 1 4.62911 1.54302 0 0.735683 0.145843
6 1 7.71514 1.54305 0 0.648455 -0.376836
7 1 2.78585e-05 3.08611 0 0.19653 -0.723793
9 1 3.08606 3.08604 0 -0.676201 -0.324426
11 1 6.17211 3.08606 0 0.448721 0.600957
8 1 1.54301 4.62916 0 0.211888 -0.719447
10 1 4.62911 4.62906 0 -0.712506 0.23417
12 1 7.71518 4.62907 0 0.507059 0.552622
13 1 -4.6043e-05 6.17209 0 0.433787 0.611825
15 1 3.08612 6.17215 0 0.341674 0.667652
17 1 6.17214 6.17221 0 0.660009 0.356213
14 1 1.54304 7.71515 0 0.495603 -0.562919
16 1 4.62912 7.71513 0 0.563462 -0.494985
18 1 7.71516 7.71518 0 0.370668 0.652001
ITEM: TIMESTEP
50
ITEM: NUMBER OF ATOMS
18
ITEM: BOX BOUNDS pp pp pp
0.0000000000000000e+00 9.2582009977255151e+00
0.0000000000000000e+00 9.2582009977255151e+00
-1.5430334996209192e+00 1.5430334996209192e+00
ITEM: ATOMS id type x y z mux muy
1 1 -6.97968e-05 -2.61861e-05 0 0.0103789 0.749928
3 1 3.08607 1.85457e-05 0 0.587085 0.466724
5 1 6.17211 -1.9411e-05 0 -0.491345 -0.566639
2 1 1.54311 1.54305 0 -0.563831 -0.494565
4 1 4.62911 1.54302 0 0.735666 0.14593
6 1 7.71514 1.54306 0 0.648409 -0.376917
7 1 3.43924e-05 3.08612 0 0.196497 -0.723802
9 1 3.08606 3.08603 0 -0.676152 -0.324528
11 1 6.1721 3.08605 0 0.448725 0.600954
8 1 1.543 4.62917 0 0.211888 -0.719447
10 1 4.62911 4.62906 0 -0.712516 0.23414
12 1 7.71518 4.62907 0 0.507108 0.552577
13 1 -5.68424e-05 6.17208 0 0.433796 0.611818
15 1 3.08614 6.17215 0 0.341638 0.66767
17 1 6.17215 6.17223 0 0.660043 0.35615
14 1 1.54304 7.71515 0 0.495642 -0.562884
16 1 4.62913 7.71512 0 0.563429 -0.495023
18 1 7.71515 7.71518 0 0.370691 0.651988
ITEM: TIMESTEP
55
ITEM: NUMBER OF ATOMS
18
ITEM: BOX BOUNDS pp pp pp
0.0000000000000000e+00 9.2582009977255151e+00
0.0000000000000000e+00 9.2582009977255151e+00
-1.5430334996209192e+00 1.5430334996209192e+00
ITEM: ATOMS id type x y z mux muy
1 1 -8.44548e-05 -3.16858e-05 0 0.0104554 0.749927
3 1 3.08607 2.2441e-05 0 0.587085 0.466724
5 1 6.17211 -2.34867e-05 0 -0.491375 -0.566613
2 1 1.54312 1.54305 0 -0.563778 -0.494626
4 1 4.62911 1.54302 0 0.735647 0.146027
6 1 7.71513 1.54306 0 0.648357 -0.377006
7 1 4.16136e-05 3.08613 0 0.19646 -0.723812
9 1 3.08606 3.08603 0 -0.676098 -0.324641
11 1 6.17209 3.08605 0 0.448729 0.600951
8 1 1.543 4.62919 0 0.211889 -0.719446
10 1 4.62911 4.62905 0 -0.712526 0.234107
12 1 7.71518 4.62906 0 0.507163 0.552527
13 1 -6.87783e-05 6.17207 0 0.433807 0.61181
15 1 3.08615 6.17216 0 0.341598 0.667691
17 1 6.17215 6.17225 0 0.66008 0.356081
14 1 1.54304 7.71514 0 0.495686 -0.562846
16 1 4.62913 7.71511 0 0.563392 -0.495066
18 1 7.71515 7.71519 0 0.370717 0.651973
ITEM: TIMESTEP
60
ITEM: NUMBER OF ATOMS
18
ITEM: BOX BOUNDS pp pp pp
0.0000000000000000e+00 9.2582009977255151e+00
0.0000000000000000e+00 9.2582009977255151e+00
-1.5430334996209192e+00 1.5430334996209192e+00
ITEM: ATOMS id type x y z mux muy
1 1 -0.000100509 -3.77097e-05 0 0.0105392 0.749926
3 1 3.08607 2.67076e-05 0 0.587086 0.466723
5 1 6.1721 -2.79504e-05 0 -0.491407 -0.566586
2 1 1.54314 1.54305 0 -0.563719 -0.494693
4 1 4.62911 1.54301 0 0.735626 0.146132
6 1 7.71512 1.54307 0 0.6483 -0.377104
7 1 4.95222e-05 3.08614 0 0.196421 -0.723822
9 1 3.08606 3.08602 0 -0.676039 -0.324764
11 1 6.17208 3.08605 0 0.448733 0.600948
8 1 1.54299 4.6292 0 0.211889 -0.719446
10 1 4.62912 4.62904 0 -0.712539 0.23407
12 1 7.71519 4.62905 0 0.507222 0.552472
13 1 -8.18504e-05 6.17206 0 0.433819 0.611801
15 1 3.08617 6.17216 0 0.341554 0.667713
17 1 6.17215 6.17227 0 0.660121 0.356005
14 1 1.54304 7.71514 0 0.495733 -0.562804
16 1 4.62914 7.7151 0 0.563351 -0.495112
18 1 7.71515 7.71519 0 0.370745 0.651957
ITEM: TIMESTEP
65
ITEM: NUMBER OF ATOMS
18
ITEM: BOX BOUNDS pp pp pp
0.0000000000000000e+00 9.2582009977255151e+00
0.0000000000000000e+00 9.2582009977255151e+00
-1.5430334996209192e+00 1.5430334996209192e+00
ITEM: ATOMS id type x y z mux muy
1 1 -0.00011796 -4.42576e-05 0 0.0106303 0.749925
3 1 3.08607 3.13454e-05 0 0.587086 0.466722
5 1 6.1721 -3.2802e-05 0 -0.491442 -0.566555
2 1 1.54316 1.54306 0 -0.563655 -0.494765
4 1 4.62912 1.54301 0 0.735603 0.146247
6 1 7.71512 1.54308 0 0.648238 -0.37721
7 1 5.81179e-05 3.08615 0 0.196377 -0.723834
9 1 3.08606 3.08601 0 -0.675974 -0.324898
11 1 6.17208 3.08604 0 0.448738 0.600944
8 1 1.54298 4.62922 0 0.21189 -0.719446
10 1 4.62912 4.62902 0 -0.712552 0.23403
12 1 7.71519 4.62904 0 0.507287 0.552413
13 1 -9.60588e-05 6.17205 0 0.433832 0.611792
15 1 3.08619 6.17217 0 0.341507 0.667737
17 1 6.17216 6.17229 0 0.660166 0.355923
14 1 1.54304 7.71513 0 0.495784 -0.562759
16 1 4.62915 7.71509 0 0.563307 -0.495162
18 1 7.71514 7.71519 0 0.370775 0.65194
ITEM: TIMESTEP
70
ITEM: NUMBER OF ATOMS
18
ITEM: BOX BOUNDS pp pp pp
0.0000000000000000e+00 9.2582009977255151e+00
0.0000000000000000e+00 9.2582009977255151e+00
-1.5430334996209192e+00 1.5430334996209192e+00
ITEM: ATOMS id type x y z mux muy
1 1 -0.000136807 -5.13298e-05 0 0.0107286 0.749923
3 1 3.08607 3.63547e-05 0 0.587087 0.466722
5 1 6.17209 -3.80415e-05 0 -0.49148 -0.566522
2 1 1.54318 1.54306 0 -0.563586 -0.494844
4 1 4.62912 1.54301 0 0.735578 0.146371
6 1 7.71511 1.54308 0 0.648172 -0.377324
7 1 6.74007e-05 3.08616 0 0.196331 -0.723847
9 1 3.08606 3.086 0 -0.675905 -0.325043
11 1 6.17207 3.08604 0 0.448743 0.60094
8 1 1.54298 4.62924 0 0.21189 -0.719446
10 1 4.62912 4.62901 0 -0.712566 0.233987
12 1 7.71519 4.62903 0 0.507357 0.552349
13 1 -0.000111403 6.17203 0 0.433846 0.611782
15 1 3.08621 6.17217 0 0.341456 0.667763
17 1 6.17216 6.17232 0 0.660214 0.355834
14 1 1.54304 7.71513 0 0.49584 -0.56271
16 1 4.62915 7.71507 0 0.563259 -0.495216
18 1 7.71514 7.7152 0 0.370808 0.651921
ITEM: TIMESTEP
75
ITEM: NUMBER OF ATOMS
18
ITEM: BOX BOUNDS pp pp pp
0.0000000000000000e+00 9.2582009977255151e+00
0.0000000000000000e+00 9.2582009977255151e+00
-1.5430334996209192e+00 1.5430334996209192e+00
ITEM: ATOMS id type x y z mux muy
1 1 -0.00015705 -5.89263e-05 0 0.0108343 0.749922
3 1 3.08607 4.17354e-05 0 0.587087 0.466721
5 1 6.17209 -4.36686e-05 0 -0.49152 -0.566487
2 1 1.5432 1.54306 0 -0.563512 -0.494928
4 1 4.62912 1.543 0 0.735552 0.146505
6 1 7.7151 1.54309 0 0.6481 -0.377447
7 1 7.73704e-05 3.08618 0 0.196281 -0.72386
9 1 3.08605 3.08599 0 -0.67583 -0.325198
11 1 6.17206 3.08603 0 0.448749 0.600936
8 1 1.54297 4.62926 0 0.211891 -0.719446
10 1 4.62912 4.629 0 -0.712581 0.233941
12 1 7.7152 4.62902 0 0.507432 0.55228
13 1 -0.000127884 6.17202 0 0.433861 0.611772
15 1 3.08623 6.17218 0 0.341401 0.667792
17 1 6.17216 6.17235 0 0.660265 0.355739
14 1 1.54305 7.71512 0 0.4959 -0.562658
16 1 4.62916 7.71506 0 0.563208 -0.495274
18 1 7.71514 7.7152 0 0.370843 0.651901
ITEM: TIMESTEP
80
ITEM: NUMBER OF ATOMS
18
ITEM: BOX BOUNDS pp pp pp
0.0000000000000000e+00 9.2582009977255151e+00
0.0000000000000000e+00 9.2582009977255151e+00
-1.5430334996209192e+00 1.5430334996209192e+00
ITEM: ATOMS id type x y z mux muy
1 1 -0.00017869 -6.70472e-05 0 0.0109472 0.74992
3 1 3.08607 4.74878e-05 0 0.587088 0.46672
5 1 6.17208 -4.96835e-05 0 -0.491564 -0.566449
2 1 1.54322 1.54307 0 -0.563433 -0.495018
4 1 4.62912 1.543 0 0.735523 0.146647
6 1 7.71509 1.5431 0 0.648024 -0.377578
7 1 8.80268e-05 3.08619 0 0.196227 -0.723875
9 1 3.08605 3.08598 0 -0.67575 -0.325364
11 1 6.17205 3.08603 0 0.448755 0.600932
8 1 1.54296 4.62928 0 0.211891 -0.719446
10 1 4.62913 4.62898 0 -0.712597 0.233892
12 1 7.7152 4.62901 0 0.507512 0.552206
13 1 -0.0001455 6.172 0 0.433877 0.61176
15 1 3.08625 6.17218 0 0.341342 0.667822
17 1 6.17217 6.17238 0 0.66032 0.355637
14 1 1.54305 7.71511 0 0.495963 -0.562601
16 1 4.62917 7.71505 0 0.563153 -0.495336
18 1 7.71513 7.71521 0 0.370881 0.65188
ITEM: TIMESTEP
85
ITEM: NUMBER OF ATOMS
18
ITEM: BOX BOUNDS pp pp pp
0.0000000000000000e+00 9.2582009977255151e+00
0.0000000000000000e+00 9.2582009977255151e+00
-1.5430334996209192e+00 1.5430334996209192e+00
ITEM: ATOMS id type x y z mux muy
1 1 -0.000201727 -7.56926e-05 0 0.0110675 0.749918
3 1 3.08608 5.36118e-05 0 0.587089 0.466719
5 1 6.17208 -5.6086e-05 0 -0.49161 -0.566409
2 1 1.54325 1.54307 0 -0.563349 -0.495114
4 1 4.62913 1.54299 0 0.735493 0.146799
6 1 7.71508 1.54311 0 0.647942 -0.377718
7 1 9.93698e-05 3.08621 0 0.19617 -0.72389
9 1 3.08605 3.08597 0 -0.675665 -0.325541
11 1 6.17203 3.08603 0 0.448762 0.600927
8 1 1.54295 4.62931 0 0.211892 -0.719446
10 1 4.62913 4.62897 0 -0.712614 0.233839
12 1 7.7152 4.629 0 0.507597 0.552128
13 1 -0.000164252 6.17199 0 0.433894 0.611748
15 1 3.08627 6.17219 0 0.341279 0.667854
17 1 6.17217 6.17241 0 0.660379 0.355528
14 1 1.54305 7.71511 0 0.496031 -0.562542
16 1 4.62918 7.71503 0 0.563095 -0.495403
18 1 7.71513 7.71521 0 0.370921 0.651857
ITEM: TIMESTEP
90
ITEM: NUMBER OF ATOMS
18
ITEM: BOX BOUNDS pp pp pp
0.0000000000000000e+00 9.2582009977255151e+00
0.0000000000000000e+00 9.2582009977255151e+00
-1.5430334996209192e+00 1.5430334996209192e+00
ITEM: ATOMS id type x y z mux muy
1 1 -0.000226161 -8.48626e-05 0 0.011195 0.749916
3 1 3.08608 6.01076e-05 0 0.58709 0.466718
5 1 6.17207 -6.28759e-05 0 -0.491659 -0.566367
2 1 1.54327 1.54308 0 -0.56326 -0.495215
4 1 4.62913 1.54299 0 0.735461 0.14696
6 1 7.71507 1.54312 0 0.647855 -0.377867
7 1 0.000111399 3.08623 0 0.196109 -0.723907
9 1 3.08605 3.08596 0 -0.675575 -0.325729
11 1 6.17202 3.08602 0 0.448768 0.600922
8 1 1.54294 4.62933 0 0.211892 -0.719445
10 1 4.62913 4.62895 0 -0.712633 0.233784
12 1 7.71521 4.62899 0 0.507687 0.552045
13 1 -0.000184139 6.17197 0 0.433912 0.611735
15 1 3.0863 6.1722 0 0.341213 0.667888
17 1 6.17217 6.17244 0 0.660441 0.355412
14 1 1.54305 7.7151 0 0.496103 -0.562478
16 1 4.62919 7.71501 0 0.563033 -0.495473
18 1 7.71512 7.71522 0 0.370964 0.651833
ITEM: TIMESTEP
95
ITEM: NUMBER OF ATOMS
18
ITEM: BOX BOUNDS pp pp pp
0.0000000000000000e+00 9.2582009977255151e+00
0.0000000000000000e+00 9.2582009977255151e+00
-1.5430334996209192e+00 1.5430334996209192e+00
ITEM: ATOMS id type x y z mux muy
1 1 -0.000251992 -9.45573e-05 0 0.0113299 0.749914
3 1 3.08608 6.69753e-05 0 0.587091 0.466717
5 1 6.17206 -7.00533e-05 0 -0.491711 -0.566322
2 1 1.5433 1.54308 0 -0.563165 -0.495323
4 1 4.62913 1.54298 0 0.735427 0.147129
6 1 7.71506 1.54313 0 0.647764 -0.378024
7 1 0.000124115 3.08624 0 0.196045 -0.723924
9 1 3.08605 3.08595 0 -0.675479 -0.325927
11 1 6.17201 3.08602 0 0.448776 0.600916
8 1 1.54293 4.62936 0 0.211893 -0.719445
10 1 4.62914 4.62894 0 -0.712652 0.233725
12 1 7.71521 4.62898 0 0.507783 0.551957
13 1 -0.000205161 6.17195 0 0.433931 0.611722
15 1 3.08632 6.1722 0 0.341142 0.667924
17 1 6.17218 6.17248 0 0.660506 0.35529
14 1 1.54305 7.71509 0 0.496179 -0.562411
16 1 4.6292 7.715 0 0.562968 -0.495547
18 1 7.71512 7.71522 0 0.371008 0.651807
ITEM: TIMESTEP
100
ITEM: NUMBER OF ATOMS
18
ITEM: BOX BOUNDS pp pp pp
0.0000000000000000e+00 9.2582009977255151e+00
0.0000000000000000e+00 9.2582009977255151e+00
-1.5430334996209192e+00 1.5430334996209192e+00
ITEM: ATOMS id type x y z mux muy
1 1 -0.000279219 -0.000104777 0 0.011472 0.749912
3 1 3.08608 7.4215e-05 0 0.587091 0.466716
5 1 6.17205 -7.76181e-05 0 -0.491765 -0.566274
2 1 1.54333 1.54309 0 -0.563066 -0.495436
4 1 4.62914 1.54298 0 0.735391 0.147309
6 1 7.71505 1.54314 0 0.647667 -0.378189
7 1 0.000137516 3.08626 0 0.195978 -0.723942
9 1 3.08605 3.08593 0 -0.675378 -0.326136
11 1 6.172 3.08601 0 0.448783 0.600911
8 1 1.54292 4.62938 0 0.211894 -0.719445
10 1 4.62914 4.62892 0 -0.712672 0.233663
12 1 7.71522 4.62896 0 0.507884 0.551864
13 1 -0.000227319 6.17193 0 0.433951 0.611708
15 1 3.08635 6.17221 0 0.341068 0.667961
17 1 6.17218 6.17251 0 0.660576 0.355162
14 1 1.54305 7.71508 0 0.496259 -0.56234
16 1 4.62921 7.71498 0 0.562899 -0.495625
18 1 7.71511 7.71523 0 0.371056 0.65178
ITEM: TIMESTEP
105
ITEM: NUMBER OF ATOMS
18
ITEM: BOX BOUNDS pp pp pp
0.0000000000000000e+00 9.2582009977255151e+00
0.0000000000000000e+00 9.2582009977255151e+00
-1.5430334996209192e+00 1.5430334996209192e+00
ITEM: ATOMS id type x y z mux muy
1 1 -0.000307844 -0.000115521 0 0.0116214 0.74991
3 1 3.08608 8.18269e-05 0 0.587092 0.466715
5 1 6.17204 -8.557e-05 0 -0.491823 -0.566225
2 1 1.54336 1.54309 0 -0.562961 -0.495555
4 1 4.62914 1.54297 0 0.735353 0.147497
6 1 7.71504 1.54315 0 0.647566 -0.378363
7 1 0.000151604 3.08628 0 0.195907 -0.723962
9 1 3.08604 3.08592 0 -0.675272 -0.326355
11 1 6.17198 3.086 0 0.448791 0.600905
8 1 1.5429 4.62941 0 0.211894 -0.719445
10 1 4.62915 4.6289 0 -0.712694 0.233598
12 1 7.71522 4.62895 0 0.50799 0.551767
13 1 -0.000250611 6.17191 0 0.433973 0.611693
15 1 3.08638 6.17222 0 0.34099 0.668001
17 1 6.17219 6.17255 0 0.660648 0.355027
14 1 1.54306 7.71507 0 0.496344 -0.562266
16 1 4.62922 7.71496 0 0.562827 -0.495707
18 1 7.7151 7.71524 0 0.371105 0.651752
ITEM: TIMESTEP
110
ITEM: NUMBER OF ATOMS
18
ITEM: BOX BOUNDS pp pp pp
0.0000000000000000e+00 9.2582009977255151e+00
0.0000000000000000e+00 9.2582009977255151e+00
-1.5430334996209192e+00 1.5430334996209192e+00
ITEM: ATOMS id type x y z mux muy
1 1 -0.000337866 -0.000126791 0 0.0117782 0.749908
3 1 3.08608 8.98111e-05 0 0.587093 0.466713
5 1 6.17204 -9.39091e-05 0 -0.491883 -0.566172
2 1 1.54339 1.5431 0 -0.562851 -0.49568
4 1 4.62914 1.54296 0 0.735314 0.147694
6 1 7.71502 1.54316 0 0.647459 -0.378545
7 1 0.000166377 3.0863 0 0.195833 -0.723982
9 1 3.08604 3.08591 0 -0.675161 -0.326585
11 1 6.17197 3.086 0 0.4488 0.600898
8 1 1.54289 4.62944 0 0.211895 -0.719445
10 1 4.62915 4.62888 0 -0.712716 0.233529
12 1 7.71523 4.62893 0 0.508101 0.551665
13 1 -0.000275039 6.17189 0 0.433995 0.611677
15 1 3.08641 6.17223 0 0.340909 0.668043
17 1 6.17219 6.17259 0 0.660724 0.354885
14 1 1.54306 7.71506 0 0.496432 -0.562188
16 1 4.62923 7.71494 0 0.562751 -0.495794
18 1 7.7151 7.71524 0 0.371158 0.651722
ITEM: TIMESTEP
115
ITEM: NUMBER OF ATOMS
18
ITEM: BOX BOUNDS pp pp pp
0.0000000000000000e+00 9.2582009977255151e+00
0.0000000000000000e+00 9.2582009977255151e+00
-1.5430334996209192e+00 1.5430334996209192e+00
ITEM: ATOMS id type x y z mux muy
1 1 -0.000369286 -0.000138586 0 0.0119422 0.749905
3 1 3.08608 9.81676e-05 0 0.587094 0.466712
5 1 6.17203 -0.000102635 0 -0.491946 -0.566118
2 1 1.54343 1.54311 0 -0.562736 -0.49581
4 1 4.62915 1.54296 0 0.735272 0.147901
6 1 7.71501 1.54317 0 0.647348 -0.378736
7 1 0.000181835 3.08633 0 0.195755 -0.724003
9 1 3.08604 3.08589 0 -0.675044 -0.326826
11 1 6.17195 3.08599 0 0.448809 0.600892
8 1 1.54288 4.62948 0 0.211896 -0.719444
10 1 4.62916 4.62886 0 -0.71274 0.233457
12 1 7.71524 4.62892 0 0.508217 0.551558
13 1 -0.0003006 6.17186 0 0.434018 0.61166
15 1 3.08644 6.17224 0 0.340823 0.668086
17 1 6.1722 6.17264 0 0.660804 0.354737
14 1 1.54306 7.71505 0 0.496525 -0.562106
16 1 4.62925 7.71492 0 0.562671 -0.495884
18 1 7.71509 7.71525 0 0.371212 0.651691
ITEM: TIMESTEP
120
ITEM: NUMBER OF ATOMS
18
ITEM: BOX BOUNDS pp pp pp
0.0000000000000000e+00 9.2582009977255151e+00
0.0000000000000000e+00 9.2582009977255151e+00
-1.5430334996209192e+00 1.5430334996209192e+00
ITEM: ATOMS id type x y z mux muy
1 1 -0.000402103 -0.000150906 0 0.0121136 0.749902
3 1 3.08608 0.000106897 0 0.587096 0.466711
5 1 6.17202 -0.000111748 0 -0.492012 -0.56606
2 1 1.54346 1.54311 0 -0.562616 -0.495946
4 1 4.62915 1.54295 0 0.735229 0.148117
6 1 7.715 1.54318 0 0.647231 -0.378935
7 1 0.000197979 3.08635 0 0.195674 -0.724025
9 1 3.08604 3.08588 0 -0.674923 -0.327077
11 1 6.17193 3.08598 0 0.448818 0.600885
8 1 1.54286 4.62951 0 0.211897 -0.719444
10 1 4.62916 4.62884 0 -0.712764 0.233383
12 1 7.71524 4.6289 0 0.508338 0.551446
13 1 -0.000327296 6.17184 0 0.434042 0.611643
15 1 3.08648 6.17224 0 0.340734 0.668132
17 1 6.17221 6.17268 0 0.660887 0.354582
14 1 1.54306 7.71504 0 0.496621 -0.562021
16 1 4.62926 7.7149 0 0.562588 -0.495978
18 1 7.71508 7.71526 0 0.371269 0.651659
ITEM: TIMESTEP
125
ITEM: NUMBER OF ATOMS
18
ITEM: BOX BOUNDS pp pp pp
0.0000000000000000e+00 9.2582009977255151e+00
0.0000000000000000e+00 9.2582009977255151e+00
-1.5430334996209192e+00 1.5430334996209192e+00
ITEM: ATOMS id type x y z mux muy
1 1 -0.000436318 -0.000163752 0 0.0122922 0.749899
3 1 3.08608 0.000115999 0 0.587097 0.466709
5 1 6.17201 -0.000121248 0 -0.492081 -0.566001
2 1 1.5435 1.54312 0 -0.562491 -0.496088
4 1 4.62916 1.54294 0 0.735184 0.148341
6 1 7.71498 1.5432 0 0.64711 -0.379143
7 1 0.000214807 3.08637 0 0.195589 -0.724048
9 1 3.08603 3.08586 0 -0.674795 -0.327339
11 1 6.17192 3.08598 0 0.448827 0.600878
8 1 1.54285 4.62954 0 0.211898 -0.719444
10 1 4.62917 4.62882 0 -0.71279 0.233305
12 1 7.71525 4.62889 0 0.508464 0.551329
13 1 -0.000355126 6.17181 0 0.434068 0.611625
15 1 3.08651 6.17225 0 0.340641 0.668179
17 1 6.17221 6.17273 0 0.660974 0.35442
14 1 1.54307 7.71503 0 0.496722 -0.561932
16 1 4.62927 7.71487 0 0.562502 -0.496076
18 1 7.71508 7.71526 0 0.371329 0.651625
ITEM: TIMESTEP
130
ITEM: NUMBER OF ATOMS
18
ITEM: BOX BOUNDS pp pp pp
0.0000000000000000e+00 9.2582009977255151e+00
0.0000000000000000e+00 9.2582009977255151e+00
-1.5430334996209192e+00 1.5430334996209192e+00
ITEM: ATOMS id type x y z mux muy
1 1 -0.00047193 -0.000177123 0 0.0124782 0.749896
3 1 3.08609 0.000125473 0 0.587098 0.466708
5 1 6.172 -0.000131134 0 -0.492152 -0.565939
2 1 1.54354 1.54313 0 -0.562361 -0.496236
4 1 4.62916 1.54294 0 0.735136 0.148575
6 1 7.71497 1.54321 0 0.646983 -0.379359
7 1 0.00023232 3.0864 0 0.195501 -0.724072
9 1 3.08603 3.08584 0 -0.674663 -0.327612
11 1 6.1719 3.08597 0 0.448837 0.60087
8 1 1.54284 4.62958 0 0.211899 -0.719443
10 1 4.62917 4.62879 0 -0.712816 0.233224
12 1 7.71525 4.62887 0 0.508596 0.551208
13 1 -0.00038409 6.17179 0 0.434094 0.611606
15 1 3.08655 6.17226 0 0.340544 0.668229
17 1 6.17222 6.17277 0 0.661064 0.354252
14 1 1.54307 7.71502 0 0.496827 -0.561839
16 1 4.62929 7.71485 0 0.562412 -0.496178
18 1 7.71507 7.71527 0 0.37139 0.65159
ITEM: TIMESTEP
135
ITEM: NUMBER OF ATOMS
18
ITEM: BOX BOUNDS pp pp pp
0.0000000000000000e+00 9.2582009977255151e+00
0.0000000000000000e+00 9.2582009977255151e+00
-1.5430334996209192e+00 1.5430334996209192e+00
ITEM: ATOMS id type x y z mux muy
1 1 -0.000508941 -0.000191021 0 0.0126715 0.749893
3 1 3.08609 0.000135321 0 0.587099 0.466706
5 1 6.17199 -0.000141407 0 -0.492226 -0.565874
2 1 1.54358 1.54313 0 -0.562225 -0.496389
4 1 4.62917 1.54293 0 0.735087 0.148818
6 1 7.71495 1.54322 0 0.646851 -0.379584
7 1 0.000250517 3.08642 0 0.195409 -0.724096
9 1 3.08603 3.08582 0 -0.674526 -0.327895
11 1 6.17188 3.08596 0 0.448848 0.600862
8 1 1.54282 4.62962 0 0.2119 -0.719443
10 1 4.62918 4.62877 0 -0.712844 0.233139
12 1 7.71526 4.62885 0 0.508733 0.551082
13 1 -0.000414187 6.17176 0 0.434121 0.611587
15 1 3.08659 6.17227 0 0.340443 0.66828
17 1 6.17223 6.17282 0 0.661158 0.354077
14 1 1.54307 7.71501 0 0.496936 -0.561743
16 1 4.6293 7.71482 0 0.562318 -0.496285
18 1 7.71506 7.71528 0 0.371454 0.651553
ITEM: TIMESTEP
140
ITEM: NUMBER OF ATOMS
18
ITEM: BOX BOUNDS pp pp pp
0.0000000000000000e+00 9.2582009977255151e+00
0.0000000000000000e+00 9.2582009977255151e+00
-1.5430334996209192e+00 1.5430334996209192e+00
ITEM: ATOMS id type x y z mux muy
1 1 -0.00054735 -0.000205444 0 0.0128721 0.74989
3 1 3.08609 0.000145542 0 0.587101 0.466704
5 1 6.17197 -0.000152066 0 -0.492303 -0.565807
2 1 1.54362 1.54314 0 -0.562085 -0.496549
4 1 4.62917 1.54292 0 0.735036 0.149071
6 1 7.71494 1.54324 0 0.646714 -0.379817
7 1 0.000269398 3.08645 0 0.195314 -0.724122
9 1 3.08602 3.08581 0 -0.674383 -0.328189
11 1 6.17186 3.08595 0 0.448859 0.600854
8 1 1.5428 4.62966 0 0.211901 -0.719443
10 1 4.62918 4.62875 0 -0.712872 0.233052
12 1 7.71527 4.62883 0 0.508874 0.550951
13 1 -0.000445418 6.17173 0 0.43415 0.611567
15 1 3.08663 6.17228 0 0.340339 0.668333
17 1 6.17223 6.17288 0 0.661255 0.353895
14 1 1.54307 7.715 0 0.497049 -0.561643
16 1 4.62932 7.7148 0 0.562221 -0.496395
18 1 7.71506 7.71529 0 0.371521 0.651515
ITEM: TIMESTEP
145
ITEM: NUMBER OF ATOMS
18
ITEM: BOX BOUNDS pp pp pp
0.0000000000000000e+00 9.2582009977255151e+00
0.0000000000000000e+00 9.2582009977255151e+00
-1.5430334996209192e+00 1.5430334996209192e+00
ITEM: ATOMS id type x y z mux muy
1 1 -0.000587158 -0.000220394 0 0.01308 0.749886
3 1 3.08609 0.000156136 0 0.587102 0.466703
5 1 6.17196 -0.000163112 0 -0.492383 -0.565738
2 1 1.54366 1.54315 0 -0.561939 -0.496714
4 1 4.62918 1.54291 0 0.734983 0.149332
6 1 7.71492 1.54325 0 0.646572 -0.380058
7 1 0.000288964 3.08648 0 0.195215 -0.724149
9 1 3.08602 3.08579 0 -0.674234 -0.328494
11 1 6.17184 3.08595 0 0.44887 0.600846
8 1 1.54279 4.6297 0 0.211902 -0.719443
10 1 4.62919 4.62872 0 -0.712902 0.232961
12 1 7.71528 4.62881 0 0.509021 0.550815
13 1 -0.000477781 6.1717 0 0.434179 0.611546
15 1 3.08667 6.1723 0 0.340231 0.668389
17 1 6.17224 6.17293 0 0.661356 0.353707
14 1 1.54308 7.71499 0 0.497166 -0.561539