ITEM: TIMESTEP
0
ITEM: NUMBER OF ATOMS
32
ITEM: BOX BOUNDS pp pp pp
0.0000000000000000e+00 1.0192943828752512e+01
0.0000000000000000e+00 1.0192943828752512e+01
-1.2741179785940639e+00 1.2741179785940639e+00
ITEM: ATOMS id type x y z mux muy
1 1 0 0 0 0.0100147 0.749933
2 1 1.27412 1.27412 0 -0.0541662 0.748041
3 1 2.54824 0 0 -0.487765 0.569723
4 1 3.82235 1.27412 0 -0.651826 -0.370976
5 1 5.09647 0 0 -0.716327 0.222207
6 1 6.37059 1.27412 0 0.640297 0.390537
7 1 7.64471 0 0 0.550584 -0.509271
8 1 8.91883 1.27412 0 -0.628703 -0.40894
9 1 0 2.54824 0 0.568751 0.488899
11 1 2.54824 2.54824 0 0.423023 -0.619315
13 1 5.09647 2.54824 0 -0.681502 0.313137
15 1 7.64471 2.54824 0 0.749972 0.00652048
10 1 1.27412 3.82235 0 -0.488758 0.568873
12 1 3.82235 3.82235 0 0.122209 0.739976
14 1 6.37059 3.82235 0 -0.697341 -0.276072
16 1 8.91883 3.82235 0 -0.29984 -0.687456
17 1 0 5.09647 0 0.701068 -0.266465
19 1 2.54824 5.09647 0 0.639894 -0.391198
21 1 5.09647 5.09647 0 0.746919 0.0679065
23 1 7.64471 5.09647 0 -0.383194 0.644719
18 1 1.27412 6.37059 0 0.494635 0.56377
20 1 3.82235 6.37059 0 0.153602 -0.734102
22 1 6.37059 6.37059 0 0.660648 0.355027
24 1 8.91883 6.37059 0 0.446647 -0.6025
25 1 0 7.64471 0 0.549405 -0.510543
27 1 2.54824 7.64471 0 -0.683061 -0.309722
29 1 5.09647 7.64471 0 -0.392057 0.639368
31 1 7.64471 7.64471 0 -0.656927 -0.361865
26 1 1.27412 8.91883 0 -0.569782 -0.487697
28 1 3.82235 8.91883 0 0.0782026 0.745912
30 1 6.37059 8.91883 0 0.503815 0.555581
32 1 8.91883 8.91883 0 -0.304999 0.685183
ITEM: TIMESTEP
5
ITEM: NUMBER OF ATOMS
32
ITEM: BOX BOUNDS pp pp pp
0.0000000000000000e+00 1.0192943828752512e+01
0.0000000000000000e+00 1.0192943828752512e+01
-1.2741179785940639e+00 1.2741179785940639e+00
ITEM: ATOMS id type x y z mux muy
1 1 1.24877e-07 1.8739e-07 0 0.0100228 0.749933
2 1 1.27412 1.27412 0 -0.0541694 0.748041
3 1 2.54824 5.16841e-08 0 -0.487775 0.569715
4 1 3.82235 1.27412 0 -0.651824 -0.37098
5 1 5.09647 4.6473e-07 0 -0.716325 0.222214
6 1 6.37059 1.27412 0 0.640297 0.390537
7 1 7.64471 3.51393e-07 0 0.550582 -0.509273
8 1 8.91882 1.27412 0 -0.628705 -0.408938
9 1 7.49696e-07 2.54824 0 0.568751 0.488898
11 1 2.54824 2.54824 0 0.42303 -0.619311
13 1 5.09647 2.54824 0 -0.681507 0.313127
15 1 7.64471 2.54823 0 0.749972 0.00652651
10 1 1.27412 3.82235 0 -0.488753 0.568876
12 1 3.82236 3.82235 0 0.122208 0.739977
14 1 6.37059 3.82235 0 -0.697337 -0.276082
16 1 8.91883 3.82235 0 -0.299845 -0.687454
17 1 -9.59879e-07 5.09647 0 0.701068 -0.266465
19 1 2.54824 5.09647 0 0.639891 -0.391202
21 1 5.09647 5.09647 0 0.746919 0.0679116
23 1 7.64471 5.09647 0 -0.383198 0.644716
18 1 1.27412 6.37059 0 0.49464 0.563765
20 1 3.82235 6.37059 0 0.153605 -0.734102
22 1 6.37059 6.37059 0 0.660644 0.355035
24 1 8.91883 6.37059 0 0.446649 -0.602499
25 1 1.03766e-06 7.64471 0 0.549399 -0.510549
27 1 2.54824 7.64471 0 -0.683061 -0.309722
29 1 5.09647 7.64471 0 -0.39206 0.639366
31 1 7.64471 7.64471 0 -0.656925 -0.361869
26 1 1.27412 8.91883 0 -0.569785 -0.487693
28 1 3.82235 8.91883 0 0.0781935 0.745913
30 1 6.37059 8.91883 0 0.503811 0.555584
32 1 8.91883 8.91883 0 -0.304996 0.685184
ITEM: TIMESTEP
10
ITEM: NUMBER OF ATOMS
32
ITEM: BOX BOUNDS pp pp pp
0.0000000000000000e+00 1.0192943828752512e+01
0.0000000000000000e+00 1.0192943828752512e+01
-1.2741179785940639e+00 1.2741179785940639e+00
ITEM: ATOMS id type x y z mux muy
1 1 4.99506e-07 7.49535e-07 0 0.0100471 0.749933
2 1 1.27412 1.27412 0 -0.0541788 0.748041
3 1 2.54824 2.06744e-07 0 -0.487803 0.569691
4 1 3.82235 1.27412 0 -0.651817 -0.370992
5 1 5.09648 1.85892e-06 0 -0.716318 0.222235
6 1 6.37059 1.27412 0 0.640298 0.390537
7 1 7.64471 1.40559e-06 0 0.550577 -0.509279
8 1 8.91882 1.27411 0 -0.628709 -0.408931
9 1 2.99879e-06 2.54824 0 0.568754 0.488896
11 1 2.54824 2.54824 0 0.423049 -0.619297
13 1 5.09647 2.54824 0 -0.681522 0.313095
15 1 7.64471 2.54823 0 0.749971 0.00654461
10 1 1.27412 3.82236 0 -0.488741 0.568887
12 1 3.82236 3.82235 0 0.122204 0.739977
14 1 6.37059 3.82235 0 -0.697325 -0.276113
16 1 8.91883 3.82235 0 -0.299863 -0.687446
17 1 -3.83956e-06 5.09648 0 0.701069 -0.266463
19 1 2.54823 5.09647 0 0.639883 -0.391216
21 1 5.09647 5.09648 0 0.746918 0.0679271
23 1 7.64471 5.09647 0 -0.383209 0.64471
18 1 1.27412 6.37058 0 0.494657 0.563751
20 1 3.82236 6.37059 0 0.153613 -0.7341
22 1 6.37059 6.37058 0 0.660631 0.355058
24 1 8.91883 6.37058 0 0.446656 -0.602494
25 1 4.15071e-06 7.6447 0 0.549383 -0.510567
27 1 2.54824 7.64471 0 -0.68306 -0.309724
29 1 5.09647 7.64471 0 -0.392066 0.639362
31 1 7.64471 7.64471 0 -0.656919 -0.36188
26 1 1.27411 8.91883 0 -0.569795 -0.487682
28 1 3.82236 8.91883 0 0.0781662 0.745916
30 1 6.37059 8.91883 0 0.5038 0.555595
32 1 8.91883 8.91882 0 -0.304989 0.685188
ITEM: TIMESTEP
15
ITEM: NUMBER OF ATOMS
32
ITEM: BOX BOUNDS pp pp pp
0.0000000000000000e+00 1.0192943828752512e+01
0.0000000000000000e+00 1.0192943828752512e+01
-1.2741179785940639e+00 1.2741179785940639e+00
ITEM: ATOMS id type x y z mux muy
1 1 1.12388e-06 1.68635e-06 0 0.0100876 0.749932
2 1 1.27412 1.27412 0 -0.0541946 0.748039
3 1 2.54824 4.65203e-07 0 -0.487851 0.569651
4 1 3.82235 1.27411 0 -0.651806 -0.371011
5 1 5.09648 4.18256e-06 0 -0.716308 0.222269
6 1 6.37059 1.27412 0 0.640298 0.390536
7 1 7.64471 3.16265e-06 0 0.550567 -0.50929
8 1 8.91881 1.27411 0 -0.628716 -0.40892
9 1 6.7473e-06 2.54825 0 0.568758 0.488891
11 1 2.54824 2.54824 0 0.423082 -0.619275
13 1 5.09647 2.54824 0 -0.681546 0.313042
15 1 7.6447 2.54822 0 0.749971 0.00657477
10 1 1.27412 3.82236 0 -0.48872 0.568905
12 1 3.82237 3.82235 0 0.122198 0.739978
14 1 6.37059 3.82235 0 -0.697304 -0.276164
16 1 8.91884 3.82235 0 -0.299892 -0.687434
17 1 -8.63915e-06 5.0965 0 0.70107 -0.266459
19 1 2.54823 5.09647 0 0.639869 -0.391239
21 1 5.09647 5.09648 0 0.746915 0.067953
23 1 7.64471 5.09647 0 -0.383228 0.644699
18 1 1.27411 6.37058 0 0.494685 0.563726
20 1 3.82236 6.37059 0 0.153627 -0.734097
22 1 6.37058 6.37058 0 0.660611 0.355096
24 1 8.91883 6.37057 0 0.446668 -0.602485
25 1 9.33928e-06 7.6447 0 0.549356 -0.510596
27 1 2.54824 7.64471 0 -0.683059 -0.309727
29 1 5.09647 7.64471 0 -0.392077 0.639355
31 1 7.6447 7.64472 0 -0.656908 -0.361899
26 1 1.27411 8.91884 0 -0.56981 -0.487664
28 1 3.82236 8.91883 0 0.0781207 0.74592
30 1 6.37058 8.91883 0 0.503781 0.555612
32 1 8.91883 8.91882 0 -0.304976 0.685193
ITEM: TIMESTEP
20
ITEM: NUMBER OF ATOMS
32
ITEM: BOX BOUNDS pp pp pp
0.0000000000000000e+00 1.0192943828752512e+01
0.0000000000000000e+00 1.0192943828752512e+01
-1.2741179785940639e+00 1.2741179785940639e+00
ITEM: ATOMS id type x y z mux muy
1 1 1.99801e-06 2.99772e-06 0 0.0101442 0.749931
2 1 1.27412 1.27412 0 -0.0542166 0.748038
3 1 2.54823 8.27099e-07 0 -0.487917 0.569594
4 1 3.82235 1.27411 0 -0.65179 -0.371039
5 1 5.09649 7.43565e-06 0 -0.716293 0.222317
6 1 6.37058 1.27412 0 0.640299 0.390534
7 1 7.64471 5.62267e-06 0 0.550554 -0.509304
8 1 8.91881 1.2741 0 -0.628726 -0.408905
9 1 1.19952e-05 2.54826 0 0.568763 0.488885
11 1 2.54825 2.54823 0 0.423128 -0.619243
13 1 5.09647 2.54825 0 -0.68158 0.312967
15 1 7.6447 2.54821 0 0.749971 0.006617
10 1 1.27411 3.82236 0 -0.488691 0.56893
12 1 3.82239 3.82235 0 0.12219 0.739979
14 1 6.37058 3.82235 0 -0.697276 -0.276235
16 1 8.91884 3.82235 0 -0.299932 -0.687416
17 1 -1.53589e-05 5.09652 0 0.701072 -0.266455
19 1 2.54822 5.09647 0 0.639849 -0.391272
21 1 5.09647 5.09649 0 0.746912 0.0679891
23 1 7.64471 5.09647 0 -0.383254 0.644683
18 1 1.27411 6.37057 0 0.494724 0.563692
20 1 3.82237 6.37059 0 0.153646 -0.734093
22 1 6.37058 6.37056 0 0.660583 0.355149
24 1 8.91883 6.37056 0 0.446684 -0.602473
25 1 1.66036e-05 7.6447 0 0.549318 -0.510637
27 1 2.54824 7.64472 0 -0.683057 -0.309731
29 1 5.09647 7.64471 0 -0.392093 0.639346
31 1 7.6447 7.64473 0 -0.656894 -0.361926
26 1 1.2741 8.91885 0 -0.569832 -0.487638
28 1 3.82236 8.91883 0 0.078057 0.745927
30 1 6.37058 8.91883 0 0.503755 0.555636
32 1 8.91884 8.91882 0 -0.304958 0.685201
ITEM: TIMESTEP
25
ITEM: NUMBER OF ATOMS
32
ITEM: BOX BOUNDS pp pp pp
0.0000000000000000e+00 1.0192943828752512e+01
0.0000000000000000e+00 1.0192943828752512e+01
-1.2741179785940639e+00 1.2741179785940639e+00
ITEM: ATOMS id type x y z mux muy
1 1 3.12188e-06 4.68344e-06 0 0.0102171 0.74993
2 1 1.27412 1.27411 0 -0.054245 0.748036
3 1 2.54823 1.29249e-06 0 -0.488002 0.569521
4 1 3.82235 1.2741 0 -0.651769 -0.371075
5 1 5.0965 1.16182e-05 0 -0.716274 0.222378
6 1 6.37058 1.27413 0 0.6403 0.390532
7 1 7.64471 8.78577e-06 0 0.550537 -0.509323
8 1 8.91879 1.27409 0 -0.628739 -0.408885
9 1 1.87427e-05 2.54827 0 0.56877 0.488876
11 1 2.54825 2.54823 0 0.423188 -0.619203
13 1 5.09646 2.54825 0 -0.681624 0.312872
15 1 7.6447 2.5482 0 0.74997 0.0066713
10 1 1.27411 3.82236 0 -0.488653 0.568962
12 1 3.82241 3.82235 0 0.12218 0.739981
14 1 6.37058 3.82234 0 -0.69724 -0.276327
16 1 8.91885 3.82235 0 -0.299984 -0.687393
17 1 -2.3999e-05 5.09654 0 0.701074 -0.266449
19 1 2.54821 5.09646 0 0.639823 -0.391314
21 1 5.09646 5.0965 0 0.746908 0.0680357
23 1 7.64471 5.09646 0 -0.383287 0.644664
18 1 1.2741 6.37056 0 0.494774 0.563648
20 1 3.82237 6.37058 0 0.153671 -0.734088
22 1 6.37057 6.37055 0 0.660546 0.355217
24 1 8.91883 6.37054 0 0.446705 -0.602457
25 1 2.59441e-05 7.64469 0 0.549269 -0.510689
27 1 2.54824 7.64473 0 -0.683055 -0.309736
29 1 5.09647 7.64471 0 -0.392113 0.639334
31 1 7.64469 7.64475 0 -0.656875 -0.36196
26 1 1.27409 8.91886 0 -0.56986 -0.487606
28 1 3.82236 8.91883 0 0.0779751 0.745936
30 1 6.37057 8.91883 0 0.503721 0.555666
32 1 8.91885 8.91882 0 -0.304934 0.685212
ITEM: TIMESTEP
30
ITEM: NUMBER OF ATOMS
32
ITEM: BOX BOUNDS pp pp pp
0.0000000000000000e+00 1.0192943828752512e+01
0.0000000000000000e+00 1.0192943828752512e+01
-1.2741179785940639e+00 1.2741179785940639e+00
ITEM: ATOMS id type x y z mux muy
1 1 4.49548e-06 6.74329e-06 0 0.0103062 0.749929
2 1 1.27412 1.27411 0 -0.0542796 0.748033
3 1 2.54823 1.86143e-06 0 -0.488106 0.569432
4 1 3.82235 1.2741 0 -0.651745 -0.371119
5 1 5.09652 1.67301e-05 0 -0.71625 0.222453
6 1 6.37057 1.27413 0 0.640302 0.39053
7 1 7.64471 1.26521e-05 0 0.550516 -0.509345
8 1 8.91878 1.27408 0 -0.628755 -0.40886
9 1 2.69896e-05 2.54829 0 0.568779 0.488866
11 1 2.54826 2.54823 0 0.42326 -0.619153
13 1 5.09646 2.54826 0 -0.681678 0.312755
15 1 7.64469 2.54818 0 0.74997 0.00673766
10 1 1.27411 3.82237 0 -0.488607 0.569002
12 1 3.82243 3.82234 0 0.122167 0.739983
14 1 6.37058 3.82234 0 -0.697195 -0.27644
16 1 8.91886 3.82235 0 -0.300048 -0.687365
17 1 -3.45598e-05 5.09657 0 0.701077 -0.266441
19 1 2.5482 5.09646 0 0.639792 -0.391365
21 1 5.09646 5.09651 0 0.746903 0.0680925
23 1 7.64472 5.09646 0 -0.383328 0.644639
18 1 1.2741 6.37054 0 0.494835 0.563594
20 1 3.82238 6.37058 0 0.153701 -0.734082
22 1 6.37057 6.37053 0 0.660501 0.3553
24 1 8.91883 6.37051 0 0.44673 -0.602438
25 1 3.73612e-05 7.64468 0 0.549209 -0.510753
27 1 2.54824 7.64473 0 -0.683052 -0.309742
29 1 5.09647 7.64471 0 -0.392137 0.639319
31 1 7.64469 7.64477 0 -0.656852 -0.362002
26 1 1.27407 8.91887 0 -0.569895 -0.487565
28 1 3.82237 8.91882 0 0.0778751 0.745946
30 1 6.37056 8.91883 0 0.50368 0.555704
32 1 8.91886 8.91881 0 -0.304906 0.685224
ITEM: TIMESTEP
35
ITEM: NUMBER OF ATOMS
32
ITEM: BOX BOUNDS pp pp pp
0.0000000000000000e+00 1.0192943828752512e+01
0.0000000000000000e+00 1.0192943828752512e+01
-1.2741179785940639e+00 1.2741179785940639e+00
ITEM: ATOMS id type x y z mux muy
1 1 6.11881e-06 9.17696e-06 0 0.0104114 0.749928
2 1 1.27413 1.27411 0 -0.0543205 0.74803
3 1 2.54823 2.53403e-06 0 -0.488229 0.569326
4 1 3.82235 1.27409 0 -0.651715 -0.37117
5 1 5.09653 2.27715e-05 0 -0.716223 0.222542
6 1 6.37057 1.27414 0 0.640303 0.390527
7 1 7.64471 1.7222e-05 0 0.550491 -0.509372
8 1 8.91876 1.27406 0 -0.628774 -0.408831
9 1 3.67362e-05 2.54831 0 0.568789 0.488855
11 1 2.54827 2.54823 0 0.423346 -0.619095
13 1 5.09645 2.54827 0 -0.681741 0.312616
15 1 7.64468 2.54816 0 0.749969 0.00681608
10 1 1.27411 3.82237 0 -0.488553 0.569048
12 1 3.82246 3.82234 0 0.122152 0.739986
14 1 6.37057 3.82233 0 -0.697142 -0.276573
16 1 8.91888 3.82234 0 -0.300123 -0.687333
17 1 -4.70419e-05 5.09661 0 0.70108 -0.266432
19 1 2.54819 5.09645 0 0.639755 -0.391425
21 1 5.09645 5.09652 0 0.746896 0.0681597
23 1 7.64472 5.09646 0 -0.383376 0.644611
18 1 1.27409 6.37053 0 0.494907 0.56353
20 1 3.82239 6.37058 0 0.153736 -0.734074
22 1 6.37056 6.37051 0 0.660448 0.355399
24 1 8.91883 6.37048 0 0.446761 -0.602416
25 1 5.08553e-05 7.64467 0 0.549139 -0.510829
27 1 2.54824 7.64474 0 -0.683048 -0.30975
29 1 5.09647 7.64471 0 -0.392166 0.639301
31 1 7.64468 7.64479 0 -0.656824 -0.362052
26 1 1.27405 8.91889 0 -0.569935 -0.487518
28 1 3.82237 8.91882 0 0.0777568 0.745958
30 1 6.37055 8.91884 0 0.503631 0.555748
32 1 8.91887 8.91881 0 -0.304872 0.685239
ITEM: TIMESTEP
40
ITEM: NUMBER OF ATOMS
32
ITEM: BOX BOUNDS pp pp pp
0.0000000000000000e+00 1.0192943828752512e+01
0.0000000000000000e+00 1.0192943828752512e+01
-1.2741179785940639e+00 1.2741179785940639e+00
ITEM: ATOMS id type x y z mux muy
1 1 7.99186e-06 1.19841e-05 0 0.0105329 0.749926
2 1 1.27413 1.27411 0 -0.0543677 0.748027
3 1 2.54823 3.31036e-06 0 -0.488371 0.569205
4 1 3.82235 1.27408 0 -0.651681 -0.37123
5 1 5.09655 2.97422e-05 0 -0.716191 0.222644
6 1 6.37056 1.27415 0 0.640305 0.390524
7 1 7.64472 2.24955e-05 0 0.550462 -0.509403
8 1 8.91875 1.27404 0 -0.628796 -0.408798
9 1 4.79823e-05 2.54833 0 0.568801 0.488841
11 1 2.54828 2.54823 0 0.423444 -0.619027
13 1 5.09644 2.54828 0 -0.681814 0.312457
15 1 7.64468 2.54814 0 0.749968 0.00690656
10 1 1.2741 3.82238 0 -0.488491 0.569102
12 1 3.82249 3.82233 0 0.122135 0.739989
14 1 6.37057 3.82233 0 -0.697082 -0.276726
16 1 8.91889 3.82234 0 -0.30021 -0.687295
17 1 -6.14457e-05 5.09665 0 0.701084 -0.266422
19 1 2.54818 5.09645 0 0.639713 -0.391494
21 1 5.09644 5.09654 0 0.746889 0.0682371
23 1 7.64472 5.09645 0 -0.383431 0.644578
18 1 1.27408 6.37051 0 0.494991 0.563457
20 1 3.82241 6.37057 0 0.153777 -0.734066
22 1 6.37055 6.37049 0 0.660387 0.355512
24 1 8.91883 6.37045 0 0.446796 -0.60239
25 1 6.64273e-05 7.64466 0 0.549057 -0.510917
27 1 2.54825 7.64475 0 -0.683044 -0.309758
29 1 5.09647 7.64471 0 -0.392199 0.639281
31 1 7.64467 7.64481 0 -0.656793 -0.362109
26 1 1.27403 8.91891 0 -0.569982 -0.487463
28 1 3.82238 8.91882 0 0.0776203 0.745973
30 1 6.37053 8.91884 0 0.503574 0.555799
32 1 8.91888 8.91881 0 -0.304833 0.685257
ITEM: TIMESTEP
45
ITEM: NUMBER OF ATOMS
32
ITEM: BOX BOUNDS pp pp pp
0.0000000000000000e+00 1.0192943828752512e+01
0.0000000000000000e+00 1.0192943828752512e+01
-1.2741179785940639e+00 1.2741179785940639e+00
ITEM: ATOMS id type x y z mux muy
1 1 1.01146e-05 1.51644e-05 0 0.0106705 0.749924
2 1 1.27413 1.27411 0 -0.0544212 0.748023
3 1 2.54823 4.19056e-06 0 -0.488531 0.569067
4 1 3.82234 1.27407 0 -0.651643 -0.371297
5 1 5.09657 3.76423e-05 0 -0.716155 0.22276
6 1 6.37055 1.27415 0 0.640308 0.39052
7 1 7.64472 2.8473e-05 0 0.55043 -0.509438
8 1 8.91872 1.27402 0 -0.62882 -0.40876
9 1 6.07283e-05 2.54836 0 0.568815 0.488825
11 1 2.54829 2.54823 0 0.423556 -0.618951
13 1 5.09644 2.54829 0 -0.681897 0.312276
15 1 7.64467 2.54811 0 0.749967 0.00700911
10 1 1.2741 3.82239 0 -0.48842 0.569163
12 1 3.82253 3.82233 0 0.122116 0.739992
14 1 6.37056 3.82232 0 -0.697013 -0.2769
16 1 8.91891 3.82234 0 -0.300308 -0.687252
17 1 -7.77717e-05 5.0967 0 0.701089 -0.266411
19 1 2.54816 5.09644 0 0.639664 -0.391573
21 1 5.09644 5.09656 0 0.746881 0.0683249
23 1 7.64472 5.09645 0 -0.383494 0.64454
18 1 1.27407 6.37048 0 0.495086 0.563374
20 1 3.82242 6.37057 0 0.153824 -0.734056
22 1 6.37054 6.37046 0 0.660318 0.355641
24 1 8.91883 6.37041 0 0.446835 -0.602361
25 1 8.40778e-05 7.64464 0 0.548965 -0.511016
27 1 2.54825 7.64477 0 -0.68304 -0.309768
29 1 5.09646 7.64471 0 -0.392237 0.639258
31 1 7.64466 7.64484 0 -0.656757 -0.362174
26 1 1.27401 8.91893 0 -0.570035 -0.487401
28 1 3.82238 8.91882 0 0.0774656 0.745989
30 1 6.37052 8.91884 0 0.50351 0.555857
32 1 8.9189 8.9188 0 -0.304789 0.685276
ITEM: TIMESTEP
50
ITEM: NUMBER OF ATOMS
32
ITEM: BOX BOUNDS pp pp pp
0.0000000000000000e+00 1.0192943828752512e+01
0.0000000000000000e+00 1.0192943828752512e+01
-1.2741179785940639e+00 1.2741179785940639e+00
ITEM: ATOMS id type x y z mux muy
1 1 1.24871e-05 1.87173e-05 0 0.0108243 0.749922
2 1 1.27414 1.27411 0 -0.054481 0.748019
3 1 2.54823 5.17475e-06 0 -0.488711 0.568913
4 1 3.82234 1.27406 0 -0.6516 -0.371372
5 1 5.0966 4.64718e-05 0 -0.716115 0.22289
6 1 6.37054 1.27416 0 0.64031 0.390516
7 1 7.64472 3.51549e-05 0 0.550394 -0.509477
8 1 8.9187 1.274 0 -0.628848 -0.408718
9 1 7.4974e-05 2.54838 0 0.568829 0.488808
11 1 2.54831 2.54823 0 0.423681 -0.618865
13 1 5.09643 2.5483 0 -0.68199 0.312074
15 1 7.64466 2.54808 0 0.749966 0.00712371
10 1 1.27409 3.82239 0 -0.48834 0.569231
12 1 3.82257 3.82232 0 0.122094 0.739995
14 1 6.37056 3.82231 0 -0.696935 -0.277094
16 1 8.91893 3.82233 0 -0.300418 -0.687204
17 1 -9.60208e-05 5.09675 0 0.701093 -0.266398
19 1 2.54815 5.09644 0 0.63961 -0.391661
21 1 5.09643 5.09657 0 0.746872 0.0684231
23 1 7.64473 5.09644 0 -0.383565 0.644498
18 1 1.27406 6.37046 0 0.495192 0.563281
20 1 3.82243 6.37056 0 0.153876 -0.734045
22 1 6.37053 6.37043 0 0.66024 0.355785
24 1 8.91883 6.37037 0 0.446879 -0.602328
25 1 0.000103808 7.64463 0 0.548862 -0.511127
27 1 2.54825 7.64478 0 -0.683035 -0.309779
29 1 5.09646 7.64471 0 -0.392279 0.639232
31 1 7.64465 7.64487 0 -0.656717 -0.362246
26 1 1.27399 8.91896 0 -0.570094 -0.487332
28 1 3.82239 8.91882 0 0.0772927 0.746007
30 1 6.3705 8.91885 0 0.503439 0.555922
32 1 8.91892 8.91879 0 -0.30474 0.685298
ITEM: TIMESTEP
55
ITEM: NUMBER OF ATOMS
32
ITEM: BOX BOUNDS pp pp pp
0.0000000000000000e+00 1.0192943828752512e+01
0.0000000000000000e+00 1.0192943828752512e+01
-1.2741179785940639e+00 1.2741179785940639e+00
ITEM: ATOMS id type x y z mux muy
1 1 1.51092e-05 2.26423e-05 0 0.0109943 0.749919
2 1 1.27414 1.2741 0 -0.0545471 0.748014
3 1 2.54822 6.26308e-06 0 -0.488909 0.568743
4 1 3.82234 1.27405 0 -0.651553 -0.371456
5 1 5.09662 5.62305e-05 0 -0.71607 0.223033
6 1 6.37053 1.27417 0 0.640313 0.390512
7 1 7.64472 4.25414e-05 0 0.550354 -0.50952
8 1 8.91867 1.27398 0 -0.628878 -0.408671
9 1 9.07196e-05 2.54842 0 0.568846 0.488789
11 1 2.54832 2.54823 0 0.423819 -0.618771
13 1 5.09642 2.54831 0 -0.682092 0.31185
15 1 7.64465 2.54805 0 0.749965 0.00725037
10 1 1.27409 3.8224 0 -0.488253 0.569306
12 1 3.82261 3.82231 0 0.12207 0.739999
14 1 6.37055 3.8223 0 -0.69685 -0.277309
16 1 8.91895 3.82233 0 -0.300539 -0.687151
17 1 -0.000116194 5.09681 0 0.701099 -0.266384
19 1 2.54813 5.09643 0 0.639551 -0.391759
21 1 5.09642 5.0966 0 0.746862 0.0685315
23 1 7.64473 5.09644 0 -0.383643 0.644452
18 1 1.27404 6.37043 0 0.495308 0.563178
20 1 3.82245 6.37056 0 0.153933 -0.734033
22 1 6.37052 6.3704 0 0.660154 0.355944
24 1 8.91883 6.37033 0 0.446928 -0.602292
25 1 0.000125618 7.64461 0 0.548748 -0.511249
27 1 2.54825 7.6448 0 -0.68303 -0.309791
29 1 5.09646 7.64471 0 -0.392325 0.639203
31 1 7.64464 7.6449 0 -0.656673 -0.362326
26 1 1.27396 8.91898 0 -0.57016 -0.487255
28 1 3.8224 8.91882 0 0.0771016 0.746026
30 1 6.37048 8.91885 0 0.50336 0.555994
32 1 8.91893 8.91879 0 -0.304686 0.685322
ITEM: TIMESTEP
60
ITEM: NUMBER OF ATOMS
32
ITEM: BOX BOUNDS pp pp pp
0.0000000000000000e+00 1.0192943828752512e+01
0.0000000000000000e+00 1.0192943828752512e+01
-1.2741179785940639e+00 1.2741179785940639e+00
ITEM: ATOMS id type x y z mux muy
1 1 1.7981e-05 2.6939e-05 0 0.0111805 0.749917
2 1 1.27415 1.2741 0 -0.0546194 0.748009
3 1 2.54822 7.4557e-06 0 -0.489126 0.568556
4 1 3.82233 1.27403 0 -0.651501 -0.371547
5 1 5.09665 6.69186e-05 0 -0.716021 0.223191
6 1 6.37052 1.27418 0 0.640316 0.390507
7 1 7.64472 5.0633e-05 0 0.55031 -0.509567
8 1 8.91864 1.27395 0 -0.628912 -0.40862
9 1 0.000107965 2.54845 0 0.568864 0.488767
11 1 2.54834 2.54823 0 0.423971 -0.618667
13 1 5.09641 2.54833 0 -0.682204 0.311606
15 1 7.64464 2.54801 0 0.749964 0.00738909
10 1 1.27408 3.82241 0 -0.488157 0.569388
12 1 3.82266 3.8223 0 0.122043 0.740004
14 1 6.37054 3.82229 0 -0.696756 -0.277544
16 1 8.91898 3.82232 0 -0.300672 -0.687093
17 1 -0.000138291 5.09687 0 0.701104 -0.266369
19 1 2.54811 5.09642 0 0.639486 -0.391865
21 1 5.09641 5.09662 0 0.746851 0.0686502
23 1 7.64474 5.09643 0 -0.383728 0.644401
18 1 1.27403 6.3704 0 0.495436 0.563065
20 1 3.82247 6.37055 0 0.153996 -0.73402
22 1 6.3705 6.37036 0 0.660061 0.356118
24 1 8.91883 6.37028 0 0.446982 -0.602252
25 1 0.000149509 7.64459 0 0.548623 -0.511383
27 1 2.54826 7.64481 0 -0.683024 -0.309804
29 1 5.09646 7.6447 0 -0.392376 0.639172
31 1 7.64463 7.64494 0 -0.656625 -0.362414
26 1 1.27393 8.91901 0 -0.570231 -0.487172
28 1 3.82241 8.91882 0 0.0768923 0.746048
30 1 6.37046 8.91886 0 0.503273 0.556072
32 1 8.91895 8.91878 0 -0.304626 0.685349
ITEM: TIMESTEP
65
ITEM: NUMBER OF ATOMS
32
ITEM: BOX BOUNDS pp pp pp
0.0000000000000000e+00 1.0192943828752512e+01
0.0000000000000000e+00 1.0192943828752512e+01
-1.2741179785940639e+00 1.2741179785940639e+00
ITEM: ATOMS id type x y z mux muy
1 1 2.11024e-05 3.16066e-05 0 0.0113828 0.749914
2 1 1.27415 1.2741 0 -0.0546981 0.748003
3 1 2.54822 8.7528e-06 0 -0.489362 0.568353
4 1 3.82233 1.27402 0 -0.651444 -0.371646
5 1 5.09668 7.85359e-05 0 -0.715968 0.223361
6 1 6.37051 1.27419 0 0.640319 0.390502
7 1 7.64473 5.94301e-05 0 0.550262 -0.509619
8 1 8.91861 1.27392 0 -0.628948 -0.408564
9 1 0.000126711 2.54849 0 0.568884 0.488745
11 1 2.54836 2.54822 0 0.424135 -0.618554
13 1 5.0964 2.54834 0 -0.682325 0.31134
15 1 7.64463 2.54797 0 0.749962 0.00753987
10 1 1.27407 3.82242 0 -0.488052 0.569478
12 1 3.82272 3.8223 0 0.122014 0.740008
14 1 6.37053 3.82228 0 -0.696655 -0.277799
16 1 8.919 3.82232 0 -0.300817 -0.687029
17 1 -0.000162314 5.09694 0 0.701111 -0.266352
19 1 2.54808 5.09641 0 0.639415 -0.391981
21 1 5.0964 5.09665 0 0.74684 0.0687793
23 1 7.64474 5.09642 0 -0.383821 0.644346
18 1 1.27401 6.37037 0 0.495576 0.562943
20 1 3.82249 6.37054 0 0.154064 -0.734006
22 1 6.37049 6.37033 0 0.659958 0.356307
24 1 8.91883 6.37022 0 0.44704 -0.602209
25 1 0.000175483 7.64457 0 0.548487 -0.511529
27 1 2.54826 7.64483 0 -0.683017 -0.309819
29 1 5.09645 7.6447 0 -0.392431 0.639138
31 1 7.64462 7.64498 0 -0.656572 -0.362509
26 1 1.2739 8.91905 0 -0.570309 -0.48708
28 1 3.82242 8.91882 0 0.0766648 0.746071
30 1 6.37044 8.91886 0 0.503179 0.556157
32 1 8.91898 8.91877 0 -0.304561 0.685378
ITEM: TIMESTEP
70
ITEM: NUMBER OF ATOMS
32
ITEM: BOX BOUNDS pp pp pp
0.0000000000000000e+00 1.0192943828752512e+01
0.0000000000000000e+00 1.0192943828752512e+01
-1.2741179785940639e+00 1.2741179785940639e+00
ITEM: ATOMS id type x y z mux muy
1 1 2.44735e-05 3.66445e-05 0 0.0116013 0.74991
2 1 1.27416 1.27409 0 -0.0547829 0.747997
3 1 2.54822 1.01546e-05 0 -0.489616 0.568134
4 1 3.82233 1.274 0 -0.651383 -0.371753
5 1 5.09672 9.10824e-05 0 -0.71591 0.223545
6 1 6.3705 1.2742 0 0.640322 0.390496
7 1 7.64473 6.89331e-05 0 0.550211 -0.509674
8 1 8.91858 1.27389 0 -0.628987 -0.408504
9 1 0.000146957 2.54853 0 0.568905 0.48872
11 1 2.54838 2.54822 0 0.424312 -0.618433
13 1 5.09639 2.54836 0 -0.682456 0.311052
15 1 7.64461 2.54793 0 0.74996 0.00770269
10 1 1.27407 3.82243 0 -0.48794 0.569574
12 1 3.82278 3.82229 0 0.121983 0.740014
14 1 6.37052 3.82227 0 -0.696545 -0.278075
16 1 8.91903 3.82231 0 -0.300973 -0.686961
17 1 -0.000188263 5.09702 0 0.701118 -0.266334
19 1 2.54806 5.0964 0 0.639338 -0.392106
21 1 5.09639 5.09667 0 0.746827 0.0689186
23 1 7.64475 5.09641 0 -0.383921 0.644286
18 1 1.274 6.37033 0 0.495726 0.562811
20 1 3.82251 6.37054 0 0.154138 -0.73399
22 1 6.37047 6.37028 0 0.659848 0.356512
24 1 8.91883 6.37017 0 0.447103 -0.602162
25 1 0.000203541 7.64455 0 0.54834 -0.511686
27 1 2.54826 7.64485 0 -0.68301 -0.309834
29 1 5.09645 7.6447 0 -0.392491 0.639102
31 1 7.6446 7.64502 0 -0.656515 -0.362612
26 1 1.27386 8.91908 0 -0.570393 -0.486982
28 1 3.82243 8.91882 0 0.0764191 0.746097
30 1 6.37042 8.91887 0 0.503077 0.556249
32 1 8.919 8.91876 0 -0.304491 0.685409
ITEM: TIMESTEP
75
ITEM: NUMBER OF ATOMS
32
ITEM: BOX BOUNDS pp pp pp
0.0000000000000000e+00 1.0192943828752512e+01
0.0000000000000000e+00 1.0192943828752512e+01
-1.2741179785940639e+00 1.2741179785940639e+00
ITEM: ATOMS id type x y z mux muy
1 1 2.80942e-05 4.2052e-05 0 0.011836 0.749907
2 1 1.27416 1.27409 0 -0.0548741 0.74799
3 1 2.54821 1.16612e-05 0 -0.48989 0.567898
4 1 3.82232 1.27398 0 -0.651317 -0.371868
5 1 5.09675 0.000104558 0 -0.715848 0.223743
6 1 6.37048 1.27422 0 0.640326 0.39049
7 1 7.64473 7.91427e-05 0 0.550155 -0.509734
8 1 8.91854 1.27385 0 -0.629029 -0.40844
9 1 0.000168704 2.54857 0 0.568928 0.488693
11 1 2.5484 2.54822 0 0.424503 -0.618302
13 1 5.09638 2.54838 0 -0.682597 0.310744
15 1 7.6446 2.54788 0 0.749959 0.00787757
10 1 1.27406 3.82244 0 -0.487819 0.569678
12 1 3.82284 3.82228 0 0.12195 0.740019
14 1 6.37051 3.82226 0 -0.696426 -0.278371
16 1 8.91906 3.82231 0 -0.30114 -0.686888
17 1 -0.00021614 5.0971 0 0.701125 -0.266315
19 1 2.54803 5.09639 0 0.639255 -0.39224
21 1 5.09638 5.0967 0 0.746813 0.0690682
23 1 7.64476 5.0964 0 -0.384028 0.644222
18 1 1.27398 6.37029 0 0.495887 0.562668
20 1 3.82254 6.37053 0 0.154217 -0.733974
22 1 6.37046 6.37024 0 0.659729 0.356731
24 1 8.91882 6.3701 0 0.44717 -0.602112
25 1 0.000233684 7.64453 0 0.548183 -0.511855
27 1 2.54827 7.64487 0 -0.683003 -0.309851
29 1 5.09645 7.6447 0 -0.392555 0.639062
31 1 7.64459 7.64507 0 -0.656454 -0.362723
26 1 1.27382 8.91912 0 -0.570484 -0.486876
28 1 3.82244 8.91882 0 0.0761552 0.746124
30 1 6.37039 8.91888 0 0.502968 0.556348
32 1 8.91903 8.91875 0 -0.304416 0.685442
ITEM: TIMESTEP
80
ITEM: NUMBER OF ATOMS
32
ITEM: BOX BOUNDS pp pp pp
0.0000000000000000e+00 1.0192943828752512e+01
0.0000000000000000e+00 1.0192943828752512e+01
-1.2741179785940639e+00 1.2741179785940639e+00
ITEM: ATOMS id type x y z mux muy
1 1 3.19645e-05 4.78284e-05 0 0.0120868 0.749903
2 1 1.27417 1.27409 0 -0.0549715 0.747983
3 1 2.54821 1.3273e-05 0 -0.490182 0.567646
4 1 3.82232 1.27396 0 -0.651247 -0.371991
5 1 5.09679 0.000118963 0 -0.715782 0.223955
6 1 6.37047 1.27423 0 0.64033 0.390483
7 1 7.64474 9.00593e-05 0 0.550096 -0.509798
8 1 8.9185 1.27382 0 -0.629073 -0.408371
9 1 0.000191951 2.54862 0 0.568952 0.488665
11 1 2.54842 2.54822 0 0.424707 -0.618162
13 1 5.09636 2.5484 0 -0.682747 0.310414
15 1 7.64459 2.54783 0 0.749957 0.0080645
10 1 1.27405 3.82245 0 -0.487689 0.569789
12 1 3.82291 3.82227 0 0.121915 0.740025
14 1 6.3705 3.82225 0 -0.6963 -0.278687
16 1 8.91909 3.8223 0 -0.301319 -0.686809
17 1 -0.000245946 5.09719 0 0.701133 -0.266295
19 1 2.548 5.09638 0 0.639167 -0.392384
21 1 5.09636 5.09674 0 0.746798 0.0692281
23 1 7.64476 5.0964 0 -0.384143 0.644154
18 1 1.27396 6.37025 0 0.49606 0.562516
20 1 3.82256 6.37052 0 0.154301 -0.733956
22 1 6.37044 6.37019 0 0.659602 0.356966
24 1 8.91882 6.37004 0 0.447242 -0.602059
25 1 0.000265914 7.6445 0 0.548014 -0.512036
27 1 2.54827 7.64489 0 -0.682995 -0.309869
29 1 5.09645 7.6447 0 -0.392624 0.63902
31 1 7.64457 7.64512 0 -0.656389 -0.362841
26 1 1.27378 8.91916 0 -0.57058 -0.486763
28 1 3.82245 8.91882 0 0.0758732 0.746152
30 1 6.37037 8.91888 0 0.502851 0.556453
32 1 8.91905 8.91874 0 -0.304336 0.685478
ITEM: TIMESTEP
85
ITEM: NUMBER OF ATOMS
32
ITEM: BOX BOUNDS pp pp pp
0.0000000000000000e+00 1.0192943828752512e+01
0.0000000000000000e+00 1.0192943828752512e+01
-1.2741179785940639e+00 1.2741179785940639e+00
ITEM: ATOMS id type x y z mux muy
1 1 3.60844e-05 5.39728e-05 0 0.0123538 0.749898
2 1 1.27417 1.27408 0 -0.0550751 0.747975
3 1 2.54821 1.499e-05 0 -0.490493 0.567377
4 1 3.82232 1.27394 0 -0.651172 -0.372122
5 1 5.09683 0.000134297 0 -0.715712 0.22418
6 1 6.37045 1.27424 0 0.640334 0.390477
7 1 7.64474 0.000101683 0 0.550033 -0.509866
8 1 8.91846 1.27378 0 -0.629121 -0.408297
9 1 0.000216699 2.54867 0 0.568978 0.488635
11 1 2.54845 2.54822 0 0.424924 -0.618013
13 1 5.09635 2.54842 0 -0.682907 0.310062
15 1 7.64457 2.54778 0 0.749954 0.00826347
10 1 1.27404 3.82247 0 -0.487551 0.569907
12 1 3.82298 3.82225 0 0.121877 0.740031
14 1 6.37049 3.82223 0 -0.696165 -0.279024
16 1 8.91913 3.82229 0 -0.30151 -0.686725
17 1 -0.000277682 5.09728 0 0.701141 -0.266273
19 1 2.54797 5.09637 0 0.639074 -0.392537
21 1 5.09635 5.09677 0 0.746782 0.0693982
23 1 7.64477 5.09639 0 -0.384265 0.644081
18 1 1.27394 6.37021 0 0.496243 0.562354
20 1 3.82259 6.37051 0 0.154391 -0.733937
22 1 6.37042 6.37014 0 0.659467 0.357216
24 1 8.91882 6.36996 0 0.447319 -0.602002
25 1 0.000300231 7.64448 0 0.547834 -0.512228
27 1 2.54828 7.64492 0 -0.682986 -0.309887
29 1 5.09644 7.6447 0 -0.392697 0.638975
31 1 7.64455 7.64517 0 -0.65632 -0.362966
26 1 1.27374 8.9192 0 -0.570683 -0.486642
28 1 3.82246 8.91882 0 0.0755729 0.746183
30 1 6.37034 8.91889 0 0.502727 0.556566
32 1 8.91908 8.91873 0 -0.30425 0.685516
ITEM: TIMESTEP
90
ITEM: NUMBER OF ATOMS
32
ITEM: BOX BOUNDS pp pp pp
0.0000000000000000e+00 1.0192943828752512e+01
0.0000000000000000e+00 1.0192943828752512e+01
-1.2741179785940639e+00 1.2741179785940639e+00
ITEM: ATOMS id type x y z mux muy
1 1 4.04538e-05 6.04843e-05 0 0.0126369 0.749894
2 1 1.27418 1.27408 0 -0.055185 0.747967
3 1 2.5482 1.68127e-05 0 -0.490822 0.567092
4 1 3.82231 1.27392 0 -0.651093 -0.372261
5 1 5.09688 0.00015056 0 -0.715637 0.224419
6 1 6.37044 1.27426 0 0.640339 0.390469
7 1 7.64475 0.000114016 0 0.549967 -0.509938
8 1 8.91842 1.27374 0 -0.629172 -0.408219
9 1 0.000242948 2.54872 0 0.569006 0.488603
11 1 2.54847 2.54821 0 0.425154 -0.617855
13 1 5.09633 2.54844 0 -0.683076 0.309689
15 1 7.64455 2.54773 0 0.749952 0.00847449
10 1 1.27403 3.82248 0 -0.487405 0.570032
12 1 3.82305 3.82224 0 0.121837 0.740038
14 1 6.37048 3.82222 0 -0.696022 -0.279381
16 1 8.91916 3.82229 0 -0.301712 -0.686637
17 1 -0.000311349 5.09738 0 0.70115 -0.266249
19 1 2.54794 5.09636 0 0.638974 -0.392699
21 1 5.09633 5.09681 0 0.746766 0.0695786
23 1 7.64478 5.09637 0 -0.384395 0.644003
18 1 1.27392 6.37016 0 0.496438 0.562183
20 1 3.82261 6.3705 0 0.154487 -0.733917
22 1 6.3704 6.37008 0 0.659324 0.35748
24 1 8.91882 6.36989 0 0.4474 -0.601941