ITEM: TIMESTEP
0
ITEM: NUMBER OF ATOMS
98
ITEM: BOX BOUNDS pp pp pp
0.0000000000000000e+00 1.3312219569756866e+01
0.0000000000000000e+00 1.3312219569756866e+01
-9.5087282641120474e-01 9.5087282641120474e-01
ITEM: ATOMS id type x y z mux muy
1 1 0 0 0 0.0100147 0.749933
2 1 0.950873 0.950873 0 0.43301 -0.612374
3 1 1.90175 0 0 -0.37295 -0.650699
4 1 2.85262 0.950873 0 -0.496221 0.562374
5 1 3.80349 0 0 0.555975 0.50338
6 1 4.75436 0.950873 0 -0.448462 -0.601151
7 1 5.70524 0 0 -0.747376 -0.0626811
8 1 6.65611 0.950873 0 0.636637 -0.396476
9 1 7.60698 0 0 0.130051 -0.738638
10 1 8.55786 0.950873 0 -0.743622 -0.0976046
11 1 9.50873 0 0 0.324504 0.676164
12 1 10.4596 0.950873 0 0.555434 0.503978
13 1 11.4105 0 0 0.443899 0.604527
14 1 12.3613 0.950873 0 -0.552069 -0.507661
15 1 0 1.90175 0 0.652556 0.36969
16 1 0.950873 2.85262 0 0.568362 -0.489351
17 1 1.90175 1.90175 0 -0.357558 -0.659282
18 1 2.85262 2.85262 0 -0.70618 0.252607
19 1 3.80349 1.90175 0 0.494588 -0.563811
20 1 4.75436 2.85262 0 -0.159602 -0.732821
21 1 5.70524 1.90175 0 0.733244 -0.157648
22 1 6.65611 2.85262 0 0.0677209 -0.746936
23 1 7.60698 1.90175 0 -0.742799 -0.103677
24 1 8.55786 2.85262 0 0.0108728 -0.749921
25 1 9.50873 1.90175 0 -0.62541 -0.41396
26 1 10.4596 2.85262 0 -0.68432 0.30693
27 1 11.4105 1.90175 0 0.292463 -0.690627
28 1 12.3613 2.85262 0 0.485609 -0.571563
29 1 0 3.80349 0 0.710249 0.240928
31 1 1.90175 3.80349 0 0.733151 0.158079
33 1 3.80349 3.80349 0 0.583576 -0.471104
35 1 5.70524 3.80349 0 -0.274654 -0.697901
37 1 7.60698 3.80349 0 -0.0834151 -0.745347
39 1 9.50873 3.80349 0 -0.687751 0.299163
41 1 11.4105 3.80349 0 0.488225 0.569329
30 1 0.950873 4.75436 0 -0.476023 -0.57957
43 1 0 5.70524 0 0.729393 0.174603
32 1 2.85262 4.75436 0 -0.71098 0.238763
45 1 1.90175 5.70524 0 0.440941 -0.606688
47 1 3.80349 5.70524 0 -0.747549 0.0605874
34 1 4.75436 4.75436 0 0.0038042 0.74999
49 1 5.70524 5.70524 0 0.484594 0.572424
36 1 6.65611 4.75436 0 -0.26359 0.702154
38 1 8.55786 4.75436 0 -0.565535 0.492616
51 1 7.60698 5.70524 0 0.711262 0.237922
53 1 9.50873 5.70524 0 -0.642094 0.387575
40 1 10.4596 4.75436 0 0.747056 -0.0663834
55 1 11.4105 5.70524 0 0.614827 -0.429521
42 1 12.3613 4.75436 0 -0.117984 -0.740662
44 1 0.950873 6.65611 0 0.708839 0.245045
46 1 2.85262 6.65611 0 0.646328 0.380473
48 1 4.75436 6.65611 0 0.458345 0.59365
50 1 6.65611 6.65611 0 -0.620894 -0.420702
52 1 8.55786 6.65611 0 0.551831 -0.50792
54 1 10.4596 6.65611 0 0.679609 -0.317226
56 1 12.3613 6.65611 0 0.598854 -0.451524
57 1 0 7.60698 0 0.166698 -0.73124
58 1 0.950873 8.55786 0 -0.518085 0.542299
59 1 1.90175 7.60698 0 -0.401171 -0.633689
60 1 2.85262 8.55786 0 0.147149 0.735423
61 1 3.80349 7.60698 0 0.133085 -0.738098
62 1 4.75436 8.55786 0 0.741346 -0.113607
63 1 5.70524 7.60698 0 0.737008 -0.138993
64 1 6.65611 8.55786 0 0.72212 0.20259
65 1 7.60698 7.60698 0 -0.386659 0.642647
66 1 8.55786 8.55786 0 0.463545 0.589598
67 1 9.50873 7.60698 0 -0.749898 0.0123679
68 1 10.4596 8.55786 0 0.505034 0.554473
69 1 11.4105 7.60698 0 0.315061 0.680615
70 1 12.3613 8.55786 0 0.749454 -0.0286122
71 1 0 9.50873 0 0.719043 -0.213255
73 1 1.90175 9.50873 0 0.749804 0.0171542
75 1 3.80349 9.50873 0 0.749968 0.00691852
77 1 5.70524 9.50873 0 0.694657 -0.282757
79 1 7.60698 9.50873 0 0.747555 0.0605125
81 1 9.50873 9.50873 0 0.192984 -0.724746
83 1 11.4105 9.50873 0 0.563791 0.49461
72 1 0.950873 10.4596 0 0.697212 -0.276398
85 1 0 11.4105 0 -0.74075 -0.117432
74 1 2.85262 10.4596 0 0.647126 0.379115
87 1 1.90175 11.4105 0 0.710469 0.24028
89 1 3.80349 11.4105 0 -0.45948 -0.592771
76 1 4.75436 10.4596 0 0.62223 -0.418724
91 1 5.70524 11.4105 0 0.340375 -0.668315
78 1 6.65611 10.4596 0 0.595511 -0.455924
80 1 8.55786 10.4596 0 0.482619 -0.57409
93 1 7.60698 11.4105 0 0.614304 -0.430268
95 1 9.50873 11.4105 0 -0.537023 0.523551
82 1 10.4596 10.4596 0 0.735035 -0.149076
97 1 11.4105 11.4105 0 -0.0605948 -0.747548
84 1 12.3613 10.4596 0 0.525022 0.535586
86 1 0.950873 12.3613 0 -0.452099 -0.59842
88 1 2.85262 12.3613 0 -0.743499 -0.0985318
90 1 4.75436 12.3613 0 -0.428466 -0.615562
92 1 6.65611 12.3613 0 -0.0537358 0.748072
94 1 8.55786 12.3613 0 -0.474342 -0.580947
96 1 10.4596 12.3613 0 0.517431 0.542923
98 1 12.3613 12.3613 0 -0.721606 -0.204414
ITEM: TIMESTEP
5
ITEM: NUMBER OF ATOMS
98
ITEM: BOX BOUNDS pp pp pp
0.0000000000000000e+00 1.3312219569756866e+01
0.0000000000000000e+00 1.3312219569756866e+01
-9.5087282641120474e-01 9.5087282641120474e-01
ITEM: ATOMS id type x y z mux muy
1 1 1.15593e-06 4.08083e-06 0 0.0100137 0.749933
2 1 0.950877 0.950872 0 0.433003 -0.612379
3 1 1.90174 4.00827e-07 0 -0.37294 -0.650704
4 1 2.85262 0.950875 0 -0.496226 0.56237
5 1 3.80349 -2.70473e-06 0 0.555971 0.503385
6 1 4.75436 0.950873 0 -0.448455 -0.601155
7 1 5.70524 -5.9578e-06 0 -0.747376 -0.0626791
8 1 6.65611 0.950874 0 0.636625 -0.396496
9 1 7.60698 3.58831e-06 0 0.130061 -0.738637
10 1 8.55786 0.950875 0 -0.743621 -0.0976125
11 1 9.50873 4.52746e-06 0 0.324501 0.676165
12 1 10.4596 0.950874 0 0.555423 0.50399
13 1 11.4105 -6.14839e-06 0 0.443902 0.604526
14 1 12.3613 0.950869 0 -0.552064 -0.507667
15 1 1.40574e-07 1.90175 0 0.652561 0.369681
16 1 0.950874 2.85262 0 0.568372 -0.489339
17 1 1.90174 1.90175 0 -0.357556 -0.659283
18 1 2.85262 2.85262 0 -0.706182 0.2526
19 1 3.8035 1.90174 0 0.494588 -0.563811
20 1 4.75437 2.85262 0 -0.159601 -0.732822
21 1 5.70523 1.90174 0 0.73324 -0.157668
22 1 6.65611 2.85262 0 0.0677183 -0.746937
23 1 7.60699 1.90174 0 -0.7428 -0.103676
24 1 8.55785 2.85262 0 0.0108799 -0.749921
25 1 9.50873 1.90174 0 -0.625403 -0.41397
26 1 10.4596 2.85262 0 -0.684317 0.306937
27 1 11.4105 1.90174 0 0.292472 -0.690623
28 1 12.3613 2.85262 0 0.485602 -0.571568
29 1 -9.84564e-07 3.80349 0 0.710254 0.240915
31 1 1.90175 3.80349 0 0.733151 0.158082
33 1 3.80349 3.80349 0 0.583583 -0.471096
35 1 5.70524 3.80349 0 -0.274655 -0.6979
37 1 7.60699 3.80349 0 -0.0834245 -0.745346
39 1 9.50873 3.80349 0 -0.687745 0.299176
41 1 11.4105 3.80349 0 0.488243 0.569315
30 1 0.950877 4.75437 0 -0.476025 -0.579569
43 1 4.53537e-06 5.70524 0 0.729394 0.1746
32 1 2.85262 4.75437 0 -0.710982 0.238757
45 1 1.90174 5.70524 0 0.440936 -0.606692
47 1 3.80349 5.70523 0 -0.747549 0.0605788
34 1 4.75436 4.75436 0 0.00380655 0.74999
49 1 5.70523 5.70523 0 0.48459 0.572427
36 1 6.65611 4.75436 0 -0.263595 0.702152
38 1 8.55785 4.75436 0 -0.565547 0.492602
51 1 7.60698 5.70524 0 0.711257 0.237935
53 1 9.50873 5.70524 0 -0.642094 0.387577
40 1 10.4596 4.75436 0 0.747057 -0.0663804
55 1 11.4105 5.70524 0 0.614834 -0.42951
42 1 12.3613 4.75436 0 -0.117966 -0.740665
44 1 0.950869 6.6561 0 0.708844 0.24503
46 1 2.85262 6.65611 0 0.646321 0.380486
48 1 4.75436 6.65612 0 0.458348 0.593647
50 1 6.65611 6.65611 0 -0.620885 -0.420716
52 1 8.55786 6.65611 0 0.551837 -0.507914
54 1 10.4596 6.65611 0 0.679614 -0.317215
56 1 12.3613 6.65611 0 0.598846 -0.451534
57 1 -6.83498e-07 7.60699 0 0.166695 -0.731241
58 1 0.950874 8.55785 0 -0.518082 0.542302
59 1 1.90175 7.60698 0 -0.401176 -0.633686
60 1 2.85262 8.55786 0 0.147154 0.735422
61 1 3.80349 7.60698 0 0.133085 -0.738098
62 1 4.75437 8.55786 0 0.741344 -0.11362
63 1 5.70524 7.60698 0 0.737011 -0.138977
64 1 6.65611 8.55786 0 0.722119 0.202595
65 1 7.60698 7.60698 0 -0.386661 0.642645
66 1 8.55785 8.55786 0 0.463551 0.589594
67 1 9.50872 7.60698 0 -0.749898 0.0123632
68 1 10.4596 8.55786 0 0.505044 0.554464
69 1 11.4105 7.60698 0 0.315058 0.680616
70 1 12.3613 8.55785 0 0.749454 -0.02861
71 1 -5.80646e-07 9.50873 0 0.719046 -0.213244
73 1 1.90174 9.50873 0 0.749804 0.0171496
75 1 3.80349 9.50873 0 0.749968 0.00690763
77 1 5.70524 9.50873 0 0.694656 -0.28276
79 1 7.60698 9.50873 0 0.747555 0.0605163
81 1 9.50873 9.50873 0 0.193006 -0.72474
83 1 11.4105 9.50873 0 0.563803 0.494597
72 1 0.950874 10.4596 0 0.697218 -0.276382
85 1 3.72619e-06 11.4105 0 -0.74075 -0.117429
74 1 2.85262 10.4596 0 0.647131 0.379106
87 1 1.90174 11.4105 0 0.71047 0.240276
89 1 3.8035 11.4105 0 -0.459479 -0.592772
76 1 4.75436 10.4596 0 0.622234 -0.418718
91 1 5.70524 11.4105 0 0.340391 -0.668307
78 1 6.65611 10.4596 0 0.595517 -0.455916
80 1 8.55786 10.4596 0 0.482633 -0.574078
93 1 7.60699 11.4105 0 0.614295 -0.430281
95 1 9.50873 11.4105 0 -0.537013 0.523562
82 1 10.4596 10.4596 0 0.735035 -0.149076
97 1 11.4105 11.4105 0 -0.0606152 -0.747547
84 1 12.3613 10.4596 0 0.525039 0.535568
86 1 0.950876 12.3613 0 -0.452107 -0.598414
88 1 2.85262 12.3613 0 -0.743503 -0.0985058
90 1 4.75436 12.3614 0 -0.428458 -0.615568
92 1 6.65611 12.3613 0 -0.0537523 0.748071
94 1 8.55785 12.3613 0 -0.47434 -0.580949
96 1 10.4596 12.3613 0 0.517431 0.542922
98 1 12.3613 12.3613 0 -0.721607 -0.204408
ITEM: TIMESTEP
10
ITEM: NUMBER OF ATOMS
98
ITEM: BOX BOUNDS pp pp pp
0.0000000000000000e+00 1.3312219569756866e+01
0.0000000000000000e+00 1.3312219569756866e+01
-9.5087282641120474e-01 9.5087282641120474e-01
ITEM: ATOMS id type x y z mux muy
1 1 4.62376e-06 1.63237e-05 0 0.0100108 0.749933
2 1 0.95089 0.95087 0 0.432981 -0.612395
3 1 1.90171 1.6031e-06 0 -0.37291 -0.650722
4 1 2.85264 0.950883 0 -0.49624 0.562357
5 1 3.80348 -1.08189e-05 0 0.555957 0.5034
6 1 4.75436 0.950872 0 -0.448436 -0.60117
7 1 5.70525 -2.38318e-05 0 -0.747377 -0.062673
8 1 6.65612 0.950878 0 0.636587 -0.396556
9 1 7.60699 1.43532e-05 0 0.130092 -0.738631
10 1 8.55786 0.950882 0 -0.743618 -0.0976363
11 1 9.50874 1.81104e-05 0 0.324494 0.676168
12 1 10.4596 0.950876 0 0.555391 0.504025
13 1 11.4105 -2.45942e-05 0 0.443909 0.60452
14 1 12.3613 0.950859 0 -0.552049 -0.507683
15 1 5.62256e-07 1.90176 0 0.652575 0.369656
16 1 0.950876 2.85262 0 0.568401 -0.489306
17 1 1.90173 1.90175 0 -0.357548 -0.659287
18 1 2.85262 2.85261 0 -0.70619 0.252578
19 1 3.80351 1.90173 0 0.494587 -0.563812
20 1 4.75437 2.85262 0 -0.159601 -0.732822
21 1 5.70523 1.90174 0 0.733227 -0.157727
22 1 6.65611 2.85262 0 0.0677107 -0.746937
23 1 7.60699 1.90174 0 -0.7428 -0.103671
24 1 8.55785 2.85262 0 0.010901 -0.749921
25 1 9.50872 1.90173 0 -0.625382 -0.414001
26 1 10.4596 2.85262 0 -0.684307 0.30696
27 1 11.4105 1.90174 0 0.2925 -0.690611
28 1 12.3613 2.85263 0 0.485583 -0.571585
29 1 -3.93824e-06 3.80348 0 0.710267 0.240877
31 1 1.90175 3.80349 0 0.733149 0.15809
33 1 3.80349 3.80349 0 0.583602 -0.471072
35 1 5.70523 3.8035 0 -0.274661 -0.697898
37 1 7.607 3.8035 0 -0.0834528 -0.745343
39 1 9.50873 3.80348 0 -0.687728 0.299216
41 1 11.4105 3.80349 0 0.488294 0.56927
30 1 0.95089 4.75437 0 -0.47603 -0.579565
43 1 1.81415e-05 5.70526 0 0.729396 0.174591
32 1 2.85261 4.75438 0 -0.710988 0.23874
45 1 1.90172 5.70526 0 0.440921 -0.606703
47 1 3.80349 5.70522 0 -0.747552 0.0605529
34 1 4.75436 4.75437 0 0.00381357 0.74999
49 1 5.70523 5.70522 0 0.484578 0.572437
36 1 6.65612 4.75436 0 -0.26361 0.702146
38 1 8.55785 4.75434 0 -0.565585 0.492559
51 1 7.60696 5.70525 0 0.711244 0.237974
53 1 9.50875 5.70524 0 -0.642091 0.387582
40 1 10.4596 4.75436 0 0.747057 -0.0663714
55 1 11.4105 5.70524 0 0.614856 -0.429479
42 1 12.3613 4.75435 0 -0.117912 -0.740673
44 1 0.950858 6.65609 0 0.70886 0.244984
46 1 2.85261 6.65611 0 0.646299 0.380522
48 1 4.75437 6.65614 0 0.458357 0.593641
50 1 6.65611 6.65612 0 -0.620857 -0.420757
52 1 8.55788 6.65611 0 0.551855 -0.507894
54 1 10.4596 6.6561 0 0.679629 -0.317182
56 1 12.3614 6.65609 0 0.598825 -0.451563
57 1 -2.73419e-06 7.607 0 0.166686 -0.731243
58 1 0.950878 8.55784 0 -0.518073 0.542311
59 1 1.90176 7.60698 0 -0.401191 -0.633676
60 1 2.85264 8.55786 0 0.147168 0.735419
61 1 3.8035 7.60698 0 0.133086 -0.738098
62 1 4.75437 8.55786 0 0.741338 -0.113657
63 1 5.70524 7.60699 0 0.73702 -0.138928
64 1 6.65611 8.55787 0 0.722114 0.202611
65 1 7.60699 7.60698 0 -0.386668 0.642641
66 1 8.55785 8.55786 0 0.463567 0.589581
67 1 9.50871 7.60699 0 -0.749898 0.0123488
68 1 10.4596 8.55789 0 0.505074 0.554437
69 1 11.4105 7.60698 0 0.315048 0.680621
70 1 12.3613 8.55784 0 0.749454 -0.0286035
71 1 -2.32257e-06 9.50874 0 0.719056 -0.21321
73 1 1.90173 9.50875 0 0.749804 0.0171358
75 1 3.80348 9.50872 0 0.749968 0.00687498
77 1 5.70523 9.50873 0 0.694653 -0.282767
79 1 7.60697 9.50873 0 0.747554 0.0605278
81 1 9.50872 9.50872 0 0.193074 -0.724722
83 1 11.4105 9.50872 0 0.563837 0.494558
72 1 0.950877 10.4596 0 0.697237 -0.276334
85 1 1.49048e-05 11.4105 0 -0.740751 -0.117423
74 1 2.85261 10.4596 0 0.647147 0.379079
87 1 1.90174 11.4105 0 0.710473 0.240267
89 1 3.80352 11.4105 0 -0.459476 -0.592775
76 1 4.75436 10.4596 0 0.622246 -0.4187
91 1 5.70524 11.4105 0 0.340439 -0.668282
78 1 6.6561 10.4596 0 0.595537 -0.45589
80 1 8.55787 10.4596 0 0.482674 -0.574043
93 1 7.60701 11.4105 0 0.614267 -0.430321
95 1 9.50873 11.4105 0 -0.536981 0.523595
82 1 10.4596 10.4596 0 0.735035 -0.149075
97 1 11.4105 11.4105 0 -0.0606763 -0.747542
84 1 12.3613 10.4596 0 0.525092 0.535517
86 1 0.950884 12.3613 0 -0.452133 -0.598394
88 1 2.85262 12.3613 0 -0.743513 -0.0984278
90 1 4.75436 12.3614 0 -0.428434 -0.615584
92 1 6.65609 12.3614 0 -0.0538017 0.748068
94 1 8.55783 12.3613 0 -0.474333 -0.580954
96 1 10.4596 12.3613 0 0.517432 0.542921
98 1 12.3613 12.3613 0 -0.721613 -0.20439
ITEM: TIMESTEP
15
ITEM: NUMBER OF ATOMS
98
ITEM: BOX BOUNDS pp pp pp
0.0000000000000000e+00 1.3312219569756866e+01
0.0000000000000000e+00 1.3312219569756866e+01
-9.5087282641120474e-01 9.5087282641120474e-01
ITEM: ATOMS id type x y z mux muy
1 1 1.04036e-05 3.67297e-05 0 0.0100059 0.749933
2 1 0.950912 0.950867 0 0.432943 -0.612422
3 1 1.90167 3.60622e-06 0 -0.372859 -0.65075
4 1 2.85267 0.950895 0 -0.496264 0.562337
5 1 3.80347 -2.43425e-05 0 0.555935 0.503424
6 1 4.75434 0.950872 0 -0.448403 -0.601195
7 1 5.70527 -5.36241e-05 0 -0.747378 -0.0626629
8 1 6.65613 0.950885 0 0.636525 -0.396657
9 1 7.60699 3.22944e-05 0 0.130144 -0.738622
10 1 8.55787 0.950893 0 -0.743612 -0.097676
11 1 9.50875 4.07504e-05 0 0.324482 0.676174
12 1 10.4595 0.95088 0 0.555338 0.504083
13 1 11.4104 -5.53394e-05 0 0.443921 0.604512
14 1 12.3613 0.950843 0 -0.552023 -0.507711
15 1 1.26493e-06 1.90177 0 0.652599 0.369615
16 1 0.950879 2.85263 0 0.56845 -0.489249
17 1 1.90171 1.90176 0 -0.357536 -0.659294
18 1 2.85262 2.85261 0 -0.706203 0.252541
19 1 3.80353 1.90172 0 0.494586 -0.563813
20 1 4.75438 2.85262 0 -0.1596 -0.732822
21 1 5.70521 1.90173 0 0.733206 -0.157825
22 1 6.65611 2.85263 0 0.0676979 -0.746938
23 1 7.607 1.90174 0 -0.742801 -0.103664
24 1 8.55783 2.85262 0 0.0109361 -0.74992
25 1 9.50872 1.90171 0 -0.625348 -0.414054
26 1 10.4596 2.85263 0 -0.68429 0.306997
27 1 11.4105 1.90173 0 0.292548 -0.690591
28 1 12.3614 2.85264 0 0.485551 -0.571612
29 1 -8.86099e-06 3.80346 0 0.710288 0.240813
31 1 1.90175 3.8035 0 0.733146 0.158103
33 1 3.8035 3.80348 0 0.583635 -0.471031
35 1 5.70522 3.8035 0 -0.27467 -0.697894
37 1 7.60701 3.80352 0 -0.0835001 -0.745337
39 1 9.50872 3.80348 0 -0.687699 0.299283
41 1 11.4105 3.80349 0 0.488381 0.569196
30 1 0.950911 4.75437 0 -0.476038 -0.579558
43 1 4.08186e-05 5.70529 0 0.729399 0.174577
32 1 2.8526 4.7544 0 -0.710997 0.238711
45 1 1.90169 5.70529 0 0.440895 -0.606722
47 1 3.8035 5.70519 0 -0.747555 0.0605097
34 1 4.75435 4.75437 0 0.00382527 0.74999
49 1 5.70521 5.7052 0 0.484559 0.572453
36 1 6.65612 4.75435 0 -0.263635 0.702137
38 1 8.55785 4.7543 0 -0.565647 0.492487
51 1 7.60692 5.70526 0 0.711223 0.238039
53 1 9.50877 5.70524 0 -0.642086 0.387589
40 1 10.4596 4.75435 0 0.747059 -0.0663565
55 1 11.4105 5.70525 0 0.614893 -0.429427
42 1 12.3613 4.75434 0 -0.117822 -0.740687
44 1 0.95084 6.65607 0 0.708887 0.244908
46 1 2.85261 6.65611 0 0.646264 0.380583
48 1 4.75437 6.65617 0 0.458371 0.593629
50 1 6.65611 6.65613 0 -0.62081 -0.420826
52 1 8.5579 6.65611 0 0.551884 -0.507862
54 1 10.4596 6.65608 0 0.679654 -0.317128
56 1 12.3614 6.65607 0 0.598788 -0.451611
57 1 -6.15268e-06 7.60701 0 0.166671 -0.731246
58 1 0.950884 8.55781 0 -0.518057 0.542325
59 1 1.90177 7.60699 0 -0.401217 -0.63366
60 1 2.85266 8.55786 0 0.147191 0.735415
61 1 3.80352 7.60697 0 0.133088 -0.738097
62 1 4.75438 8.55788 0 0.741328 -0.113719
63 1 5.70524 7.607 0 0.737036 -0.138846
64 1 6.65611 8.55789 0 0.722106 0.202638
65 1 7.607 7.60698 0 -0.38668 0.642634
66 1 8.55785 8.55786 0 0.463594 0.58956
67 1 9.50868 7.60699 0 -0.749899 0.0123249
68 1 10.4596 8.55793 0 0.505125 0.55439
69 1 11.4105 7.60698 0 0.315032 0.680628
70 1 12.3613 8.55783 0 0.749455 -0.0285926
71 1 -5.22575e-06 9.50875 0 0.719073 -0.213153
73 1 1.90171 9.50878 0 0.749805 0.0171128
75 1 3.80347 9.50871 0 0.749969 0.00682056
77 1 5.70522 9.50873 0 0.694648 -0.282779
79 1 7.60695 9.50873 0 0.747552 0.0605469
81 1 9.50871 9.50871 0 0.193188 -0.724692
83 1 11.4105 9.50872 0 0.563895 0.494493
72 1 0.950882 10.4596 0 0.697269 -0.276254
85 1 3.35359e-05 11.4105 0 -0.740753 -0.117413
74 1 2.8526 10.4596 0 0.647174 0.379033
87 1 1.90173 11.4105 0 0.710478 0.240252
89 1 3.80356 11.4105 0 -0.45947 -0.592779
76 1 4.75436 10.4596 0 0.622266 -0.41867
91 1 5.70525 11.4105 0 0.340519 -0.668242
78 1 6.65609 10.4596 0 0.595571 -0.455846
80 1 8.55789 10.4596 0 0.482743 -0.573985
93 1 7.60704 11.4104 0 0.614221 -0.430387
95 1 9.50874 11.4105 0 -0.536927 0.52365
82 1 10.4596 10.4596 0 0.735036 -0.149073
97 1 11.4105 11.4105 0 -0.0607781 -0.747533
84 1 12.3613 10.4596 0 0.52518 0.53543
86 1 0.950899 12.3613 0 -0.452177 -0.598361
88 1 2.85261 12.3613 0 -0.74353 -0.0982978
90 1 4.75435 12.3614 0 -0.428395 -0.615612
92 1 6.65607 12.3614 0 -0.0538842 0.748062
94 1 8.5578 12.3613 0 -0.474323 -0.580963
96 1 10.4596 12.3614 0 0.517434 0.54292
98 1 12.3613 12.3613 0 -0.721621 -0.20436
ITEM: TIMESTEP
20
ITEM: NUMBER OF ATOMS
98
ITEM: BOX BOUNDS pp pp pp
0.0000000000000000e+00 1.3312219569756866e+01
0.0000000000000000e+00 1.3312219569756866e+01
-9.5087282641120474e-01 9.5087282641120474e-01
ITEM: ATOMS id type x y z mux muy
1 1 1.84958e-05 6.53006e-05 0 0.00999905 0.749933
2 1 0.950942 0.950862 0 0.432891 -0.612458
3 1 1.90162 6.40915e-06 0 -0.372789 -0.650791
4 1 2.8527 0.950913 0 -0.496297 0.562308
5 1 3.80346 -4.32753e-05 0 0.555905 0.503458
6 1 4.75433 0.950871 0 -0.448356 -0.601229
7 1 5.7053 -9.5338e-05 0 -0.747379 -0.0626488
8 1 6.65614 0.950895 0 0.636437 -0.396797
9 1 7.607 5.74118e-05 0 0.130217 -0.738609
10 1 8.55788 0.950909 0 -0.743605 -0.0977316
11 1 9.50877 7.24502e-05 0 0.324465 0.676182
12 1 10.4595 0.950885 0 0.555263 0.504166
13 1 11.4104 -9.83871e-05 0 0.443938 0.604499
14 1 12.3613 0.950819 0 -0.551987 -0.50775
15 1 2.2484e-06 1.90179 0 0.652631 0.369557
16 1 0.950884 2.85264 0 0.568518 -0.48917
17 1 1.90168 1.90177 0 -0.357518 -0.659303
18 1 2.85261 2.8526 0 -0.706222 0.25249
19 1 3.80355 1.90169 0 0.494584 -0.563815
20 1 4.75439 2.85262 0 -0.159598 -0.732822
21 1 5.70519 1.90172 0 0.733176 -0.157963
22 1 6.65611 2.85263 0 0.06768 -0.74694
23 1 7.60702 1.90173 0 -0.742803 -0.103654
24 1 8.55782 2.85262 0 0.0109854 -0.74992
25 1 9.50871 1.90169 0 -0.625299 -0.414127
26 1 10.4595 2.85263 0 -0.684266 0.30705
27 1 11.4106 1.90172 0 0.292614 -0.690563
28 1 12.3614 2.85265 0 0.485507 -0.57165
29 1 -1.57527e-05 3.80344 0 0.710318 0.240723
31 1 1.90176 3.8035 0 0.733142 0.158122
33 1 3.8035 3.80347 0 0.583681 -0.470974
35 1 5.70521 3.80351 0 -0.274683 -0.697889
37 1 7.60703 3.80353 0 -0.0835662 -0.74533
39 1 9.50872 3.80346 0 -0.687658 0.299377
41 1 11.4105 3.80348 0 0.488501 0.569093
30 1 0.95094 4.75438 0 -0.47605 -0.579549
43 1 7.25669e-05 5.70533 0 0.729404 0.174556
32 1 2.85258 4.75443 0 -0.711011 0.238671
45 1 1.90165 5.70534 0 0.440859 -0.606748
47 1 3.8035 5.70515 0 -0.74756 0.0604492
34 1 4.75434 4.75437 0 0.00384166 0.74999
49 1 5.7052 5.70518 0 0.484532 0.572476
36 1 6.65613 4.75434 0 -0.26367 0.702124
38 1 8.55785 4.75425 0 -0.565735 0.492386
51 1 7.60688 5.70529 0 0.711192 0.23813
53 1 9.5088 5.70524 0 -0.64208 0.3876
40 1 10.4596 4.75434 0 0.747061 -0.0663355
55 1 11.4105 5.70526 0 0.614944 -0.429353
42 1 12.3613 4.75432 0 -0.117697 -0.740707
44 1 0.950815 6.65603 0 0.708923 0.244801
46 1 2.8526 6.65612 0 0.646214 0.380668
48 1 4.75437 6.65622 0 0.458392 0.593613
50 1 6.65611 6.65614 0 -0.620744 -0.420923
52 1 8.55794 6.65611 0 0.551926 -0.507816
54 1 10.4596 6.65606 0 0.67969 -0.317052
56 1 12.3614 6.65605 0 0.598738 -0.451678
57 1 -1.094e-05 7.60704 0 0.16665 -0.731251
58 1 0.950892 8.55778 0 -0.518036 0.542345
59 1 1.90179 7.60699 0 -0.401253 -0.633637
60 1 2.8527 8.55786 0 0.147224 0.735408
61 1 3.80354 7.60697 0 0.133091 -0.738097
62 1 4.75439 8.55789 0 0.741315 -0.113806
63 1 5.70524 7.60701 0 0.737057 -0.138731
64 1 6.65611 8.55791 0 0.722096 0.202676
65 1 7.60702 7.60697 0 -0.386696 0.642625
66 1 8.55785 8.55786 0 0.463632 0.58953
67 1 9.50864 7.60699 0 -0.749899 0.0122914
68 1 10.4597 8.55798 0 0.505196 0.554326
69 1 11.4105 7.60697 0 0.315009 0.680639
70 1 12.3613 8.55781 0 0.749455 -0.0285774
71 1 -9.29011e-06 9.50877 0 0.719096 -0.213074
73 1 1.90169 9.50881 0 0.749805 0.0170807
75 1 3.80346 9.50869 0 0.74997 0.00674438
77 1 5.70521 9.50873 0 0.694641 -0.282796
79 1 7.60692 9.50873 0 0.74755 0.0605736
81 1 9.50869 9.50869 0 0.193346 -0.72465
83 1 11.4105 9.50871 0 0.563975 0.494401
72 1 0.95089 10.4596 0 0.697313 -0.276142
85 1 5.96195e-05 11.4106 0 -0.740755 -0.117398
74 1 2.85259 10.4595 0 0.647211 0.37897
87 1 1.90172 11.4104 0 0.710485 0.240231
89 1 3.80362 11.4105 0 -0.459462 -0.592785
76 1 4.75436 10.4595 0 0.622294 -0.418628
91 1 5.70526 11.4105 0 0.34063 -0.668185
78 1 6.65607 10.4596 0 0.595617 -0.455785
80 1 8.55791 10.4597 0 0.482839 -0.573904
93 1 7.60708 11.4104 0 0.614156 -0.430479
95 1 9.50875 11.4105 0 -0.536853 0.523726
82 1 10.4596 10.4595 0 0.735036 -0.14907
97 1 11.4105 11.4105 0 -0.0609206 -0.747522
84 1 12.3613 10.4595 0 0.525304 0.535309
86 1 0.950919 12.3613 0 -0.452237 -0.598316
88 1 2.85261 12.3613 0 -0.743554 -0.0981159
90 1 4.75434 12.3614 0 -0.428339 -0.615651
92 1 6.65604 12.3614 0 -0.0539996 0.748054
94 1 8.55776 12.3613 0 -0.474309 -0.580974
96 1 10.4596 12.3614 0 0.517436 0.542918
98 1 12.3612 12.3613 0 -0.721633 -0.204319
ITEM: TIMESTEP
25
ITEM: NUMBER OF ATOMS
98
ITEM: BOX BOUNDS pp pp pp
0.0000000000000000e+00 1.3312219569756866e+01
0.0000000000000000e+00 1.3312219569756866e+01
-9.5087282641120474e-01 9.5087282641120474e-01
ITEM: ATOMS id type x y z mux muy
1 1 2.89006e-05 0.000102039 0 0.00999027 0.749933
2 1 0.950981 0.950855 0 0.432824 -0.612506
3 1 1.90155 1.00105e-05 0 -0.372699 -0.650842
4 1 2.85275 0.950935 0 -0.496339 0.56227
5 1 3.80344 -6.76174e-05 0 0.555865 0.503502
6 1 4.75431 0.95087 0 -0.448297 -0.601273
7 1 5.70534 -0.000148978 0 -0.74738 -0.0626306
8 1 6.65616 0.950908 0 0.636324 -0.396978
9 1 7.60701 8.97048e-05 0 0.130311 -0.738593
10 1 8.55789 0.950929 0 -0.743596 -0.097803
11 1 9.50879 0.000113214 0 0.324444 0.676193
12 1 10.4595 0.950892 0 0.555167 0.504271
13 1 11.4104 -0.000153742 0 0.443959 0.604484
14 1 12.3614 0.950789 0 -0.551941 -0.507801
15 1 3.51238e-06 1.90182 0 0.652674 0.369482
16 1 0.95089 2.85266 0 0.568606 -0.489068
17 1 1.90165 1.90178 0 -0.357496 -0.659315
18 1 2.85261 2.85259 0 -0.706245 0.252424
19 1 3.80359 1.90166 0 0.494581 -0.563817
20 1 4.7544 2.85263 0 -0.159597 -0.732823
21 1 5.70517 1.90171 0 0.733138 -0.15814
22 1 6.65611 2.85264 0 0.067657 -0.746942
23 1 7.60704 1.90172 0 -0.742804 -0.103642
24 1 8.5578 2.85262 0 0.0110487 -0.749919
25 1 9.5087 1.90166 0 -0.625237 -0.414221
26 1 10.4595 2.85264 0 -0.684236 0.307117
27 1 11.4106 1.9017 0 0.292699 -0.690527
28 1 12.3614 2.85267 0 0.485449 -0.571698
29 1 -2.46134e-05 3.80341 0 0.710357 0.240608
31 1 1.90177 3.8035 0 0.733137 0.158146
33 1 3.8035 3.80345 0 0.58374 -0.470901
35 1 5.70519 3.80352 0 -0.274699 -0.697883
37 1 7.60706 3.80356 0 -0.0836512 -0.74532
39 1 9.50871 3.80345 0 -0.687605 0.299498
41 1 11.4104 3.80347 0 0.488656 0.56896
30 1 0.950978 4.75439 0 -0.476065 -0.579536
43 1 0.000113387 5.70539 0 0.72941 0.17453
32 1 2.85256 4.75446 0 -0.711028 0.238619
45 1 1.90159 5.70539 0 0.440813 -0.606782
47 1 3.80351 5.7051 0 -0.747566 0.0603714
34 1 4.75433 4.75438 0 0.00386274 0.74999
49 1 5.70517 5.70515 0 0.484497 0.572505
36 1 6.65615 4.75433 0 -0.263715 0.702107
38 1 8.55784 4.75418 0 -0.565848 0.492256
51 1 7.60682 5.70531 0 0.711153 0.238247
53 1 9.50884 5.70525 0 -0.642071 0.387614
40 1 10.4595 4.75433 0 0.747063 -0.0663085
55 1 11.4105 5.70527 0 0.615009 -0.429259
42 1 12.3613 4.7543 0 -0.117536 -0.740733
44 1 0.950783 6.65599 0 0.708971 0.244664
46 1 2.85259 6.65612 0 0.646149 0.380777
48 1 4.75438 6.65629 0 0.458419 0.593593
50 1 6.65611 6.65616 0 -0.62066 -0.421048
52 1 8.55798 6.6561 0 0.55198 -0.507758
54 1 10.4596 6.65603 0 0.679735 -0.316954
56 1 12.3614 6.65601 0 0.598672 -0.451765
57 1 -1.70974e-05 7.60707 0 0.166623 -0.731257
58 1 0.950903 8.55774 0 -0.518009 0.542372
59 1 1.90181 7.60699 0 -0.401299 -0.633608
60 1 2.85274 8.55786 0 0.147266 0.7354
61 1 3.80357 7.60696 0 0.133094 -0.738096
62 1 4.75441 8.55791 0 0.741298 -0.113919
63 1 5.70524 7.60703 0 0.737085 -0.138584
64 1 6.65611 8.55794 0 0.722082 0.202725
65 1 7.60703 7.60697 0 -0.386717 0.642612
66 1 8.55784 8.55786 0 0.463681 0.589491
67 1 9.50859 7.607 0 -0.7499 0.0122484
68 1 10.4597 8.55805 0 0.505287 0.554243
69 1 11.4105 7.60697 0 0.31498 0.680652
70 1 12.3613 8.55778 0 0.749456 -0.0285579
71 1 -1.45156e-05 9.5088 0 0.719126 -0.212973
73 1 1.90166 9.50886 0 0.749806 0.0170393
75 1 3.80344 9.50867 0 0.749971 0.00664644
77 1 5.70519 9.50873 0 0.694632 -0.282818
79 1 7.60689 9.50873 0 0.747547 0.0606079
81 1 9.50867 9.50867 0 0.19355 -0.724595
83 1 11.4105 9.5087 0 0.564078 0.494283
72 1 0.9509 10.4595 0 0.69737 -0.275999
85 1 9.31559e-05 11.4107 0 -0.740758 -0.117379
74 1 2.85257 10.4595 0 0.647259 0.378888
87 1 1.90171 11.4104 0 0.710494 0.240203
89 1 3.80369 11.4106 0 -0.459452 -0.592793
76 1 4.75436 10.4595 0 0.622331 -0.418574
91 1 5.70528 11.4105 0 0.340773 -0.668112
78 1 6.65605 10.4596 0 0.595677 -0.455707
80 1 8.55794 10.4597 0 0.482963 -0.5738
93 1 7.60714 11.4104 0 0.614073 -0.430597
95 1 9.50876 11.4105 0 -0.536757 0.523825
82 1 10.4596 10.4595 0 0.735037 -0.149067
97 1 11.4105 11.4106 0 -0.0611039 -0.747507
84 1 12.3612 10.4595 0 0.525462 0.535154
86 1 0.950944 12.3614 0 -0.452315 -0.598257
88 1 2.8526 12.3613 0 -0.743585 -0.0978818
90 1 4.75432 12.3614 0 -0.428268 -0.6157
92 1 6.65599 12.3614 0 -0.0541479 0.748043
94 1 8.55771 12.3613 0 -0.47429 -0.58099
96 1 10.4596 12.3614 0 0.517439 0.542915
98 1 12.3612 12.3612 0 -0.721648 -0.204265
ITEM: TIMESTEP
30
ITEM: NUMBER OF ATOMS
98
ITEM: BOX BOUNDS pp pp pp
0.0000000000000000e+00 1.3312219569756866e+01
0.0000000000000000e+00 1.3312219569756866e+01
-9.5087282641120474e-01 9.5087282641120474e-01
ITEM: ATOMS id type x y z mux muy
1 1 4.16184e-05 0.000146948 0 0.00997953 0.749934
2 1 0.951028 0.950848 0 0.432742 -0.612564
3 1 1.90146 1.44084e-05 0 -0.372588 -0.650905
4 1 2.85281 0.950963 0 -0.496391 0.562224
5 1 3.80341 -9.73686e-05 0 0.555817 0.503555
6 1 4.75428 0.950869 0 -0.448225 -0.601327
7 1 5.70538 -0.00021455 0 -0.747382 -0.0626084
8 1 6.65618 0.950923 0 0.636187 -0.397198
9 1 7.60703 0.000129173 0 0.130425 -0.738572
10 1 8.55791 0.950954 0 -0.743584 -0.0978903
11 1 9.50882 0.000163045 0 0.324417 0.676205
12 1 10.4594 0.9509 0 0.55505 0.5044
13 1 11.4104 -0.00022141 0 0.443985 0.604464
14 1 12.3614 0.950753 0 -0.551884 -0.507862
15 1 5.05653e-06 1.90185 0 0.652726 0.36939
16 1 0.950898 2.85267 0 0.568713 -0.488944
17 1 1.9016 1.9018 0 -0.357469 -0.65933
18 1 2.85261 2.85257 0 -0.706274 0.252343
19 1 3.80363 1.90163 0 0.494578 -0.56382
20 1 4.75442 2.85263 0 -0.159595 -0.732823
21 1 5.70513 1.9017 0 0.733092 -0.158356
22 1 6.65611 2.85265 0 0.0676288 -0.746945
23 1 7.60707 1.90171 0 -0.742807 -0.103626
24 1 8.55777 2.85262 0 0.0111261 -0.749917
25 1 9.50869 1.90162 0 -0.625161 -0.414336
26 1 10.4595 2.85265 0 -0.684199 0.307199
27 1 11.4107 1.90169 0 0.292802 -0.690483
28 1 12.3614 2.85269 0 0.485379 -0.571758
29 1 -3.54427e-05 3.80338 0 0.710405 0.240468
31 1 1.90178 3.80351 0 0.733131 0.158175
33 1 3.80351 3.80344 0 0.583812 -0.470812
35 1 5.70517 3.80353 0 -0.274719 -0.697875
37 1 7.6071 3.80359 0 -0.083755 -0.745309
39 1 9.50871 3.80343 0 -0.687541 0.299645
41 1 11.4104 3.80347 0 0.488846 0.568797
30 1 0.951024 4.75441 0 -0.476083 -0.579521
43 1 0.000163278 5.70545 0 0.729418 0.174498
32 1 2.85253 4.7545 0 -0.711049 0.238556
45 1 1.90152 5.70546 0 0.440757 -0.606823
47 1 3.80352 5.70505 0 -0.747574 0.0602763
34 1 4.75432 4.75439 0 0.0038885 0.74999
49 1 5.70514 5.70511 0 0.484455 0.572541
36 1 6.65617 4.75432 0 -0.26377 0.702086
38 1 8.55784 4.7541 0 -0.565985 0.492098
51 1 7.60674 5.70535 0 0.711105 0.23839
53 1 9.50888 5.70525 0 -0.642061 0.387631
40 1 10.4595 4.75431 0 0.747066 -0.0662756
55 1 11.4105 5.70529 0 0.615089 -0.429144
42 1 12.3613 4.75427 0 -0.117339 -0.740764
44 1 0.950743 6.65593 0 0.709029 0.244496
46 1 2.85257 6.65613 0 0.64607 0.380911
48 1 4.75438 6.65637 0 0.458451 0.593568
50 1 6.65612 6.65618 0 -0.620557 -0.4212
52 1 8.55804 6.6561 0 0.552045 -0.507687
54 1 10.4596 6.65599 0 0.679791 -0.316835
56 1 12.3615 6.65597 0 0.598593 -0.45187
57 1 -2.46269e-05 7.6071 0 0.166589 -0.731265
58 1 0.950916 8.55769 0 -0.517975 0.542404
59 1 1.90183 7.607 0 -0.401355 -0.633573
60 1 2.85279 8.55787 0 0.147318 0.735389
61 1 3.8036 7.60694 0 0.133098 -0.738095
62 1 4.75443 8.55794 0 0.741277 -0.114056
63 1 5.70525 7.60705 0 0.737119 -0.138404
64 1 6.65611 8.55798 0 0.722065 0.202785
65 1 7.60706 7.60696 0 -0.386742 0.642597
66 1 8.55784 8.55786 0 0.46374 0.589445
67 1 9.50852 7.60701 0 -0.749901 0.0121957
68 1 10.4597 8.55814 0 0.505398 0.554141
69 1 11.4105 7.60696 0 0.314944 0.680669
70 1 12.3613 8.55775 0 0.749457 -0.028534
71 1 -2.09021e-05 9.50883 0 0.719163 -0.212848
73 1 1.90162 9.50892 0 0.749808 0.0169887
75 1 3.80342 9.50864 0 0.749972 0.00652674
77 1 5.70517 9.50874 0 0.694621 -0.282845
79 1 7.60685 9.50873 0 0.747544 0.0606499
81 1 9.50864 9.50864 0 0.193799 -0.724529
83 1 11.4105 9.50869 0 0.564204 0.49414
72 1 0.950911 10.4595 0 0.697439 -0.275823
85 1 0.000134145 11.4108 0 -0.740761 -0.117356
74 1 2.85255 10.4594 0 0.647317 0.378789
87 1 1.90169 11.4104 0 0.710506 0.24017
89 1 3.80377 11.4106 0 -0.459439 -0.592803