ITEM: TIMESTEP
0
ITEM: NUMBER OF ATOMS
50
ITEM: BOX BOUNDS pp pp pp
0.0000000000000000e+00 1.1097419040461880e+01
0.0000000000000000e+00 1.1097419040461880e+01
-1.1097419040461880e+00 1.1097419040461880e+00
ITEM: ATOMS id type x y z mux muy
1 1 0 0 0 0.0100147 0.749933
2 1 1.10974 1.10974 0 -0.450111 0.599917
3 1 2.21948 0 0 -0.650325 0.373601
4 1 3.32923 1.10974 0 0.661629 -0.353195
5 1 4.43897 0 0 -0.597251 0.453642
6 1 5.54871 1.10974 0 -0.62179 0.419377
7 1 6.65845 0 0 -0.0575652 -0.747788
8 1 7.76819 1.10974 0 0.156536 -0.733482
9 1 8.87794 0 0 0.613823 -0.430954
10 1 9.98768 1.10974 0 0.704161 -0.25818
11 1 0 2.21948 0 -0.584037 -0.470533
13 1 2.21948 2.21948 0 -0.69418 -0.283927
15 1 4.43897 2.21948 0 -0.69951 -0.270529
17 1 6.65845 2.21948 0 -0.0408579 0.748886
19 1 8.87794 2.21948 0 -0.732099 -0.162884
12 1 1.10974 3.32923 0 -0.645526 -0.381832
21 1 0 4.43897 0 0.524756 0.535847
23 1 2.21948 4.43897 0 -0.209076 -0.720269
14 1 3.32923 3.32923 0 -0.593715 0.45826
25 1 4.43897 4.43897 0 0.713393 0.231453
16 1 5.54871 3.32923 0 -0.698803 0.272349
18 1 7.76819 3.32923 0 0.604015 0.444596
27 1 6.65845 4.43897 0 0.659765 0.356666
29 1 8.87794 4.43897 0 -0.749971 0.00664168
20 1 9.98768 3.32923 0 -0.408214 0.629175
22 1 1.10974 5.54871 0 0.393159 0.638691
24 1 3.32923 5.54871 0 0.527632 0.533015
26 1 5.54871 5.54871 0 0.425138 -0.617866
28 1 7.76819 5.54871 0 0.665727 -0.34541
30 1 9.98768 5.54871 0 -0.521476 0.539038
31 1 0 6.65845 0 -0.748796 -0.0424823
32 1 1.10974 7.76819 0 0.739689 0.123937
33 1 2.21948 6.65845 0 -0.352264 -0.662126
34 1 3.32923 7.76819 0 -0.749829 0.016014
35 1 4.43897 6.65845 0 0.620184 -0.421748
36 1 5.54871 7.76819 0 -0.36808 -0.653465
37 1 6.65845 6.65845 0 -0.70628 0.252327
38 1 7.76819 7.76819 0 -0.562211 0.496405
39 1 8.87794 6.65845 0 -0.555202 0.504233
40 1 9.98768 7.76819 0 0.675444 0.325999
41 1 0 8.87794 0 -0.19491 -0.724231
43 1 2.21948 8.87794 0 0.0265837 -0.749529
45 1 4.43897 8.87794 0 0.44863 0.601025
47 1 6.65845 8.87794 0 0.513499 -0.546643
49 1 8.87794 8.87794 0 -0.709942 -0.24183
42 1 1.10974 9.98768 0 0.738974 0.128131
44 1 3.32923 9.98768 0 -0.535456 0.525154
46 1 5.54871 9.98768 0 0.696772 -0.277505
48 1 7.76819 9.98768 0 0.50697 0.552704
50 1 9.98768 9.98768 0 -0.604149 0.444414
ITEM: TIMESTEP
5
ITEM: NUMBER OF ATOMS
50
ITEM: BOX BOUNDS pp pp pp
0.0000000000000000e+00 1.1097419040461880e+01
0.0000000000000000e+00 1.1097419040461880e+01
-1.1097419040461880e+00 1.1097419040461880e+00
ITEM: ATOMS id type x y z mux muy
1 1 6.76601e-07 8.49218e-07 0 0.010025 0.749933
2 1 1.10974 1.10974 0 -0.450107 0.59992
3 1 2.21948 5.34113e-07 0 -0.650321 0.373607
4 1 3.32922 1.10974 0 0.661628 -0.353197
5 1 4.43897 -7.77763e-07 0 -0.597255 0.453637
6 1 5.54871 1.10974 0 -0.621784 0.419386
7 1 6.65845 -1.20486e-06 0 -0.0575782 -0.747787
8 1 7.7682 1.10974 0 0.156525 -0.733485
9 1 8.87793 8.97796e-07 0 0.61383 -0.430944
10 1 9.98768 1.10974 0 0.704162 -0.258177
11 1 7.79012e-07 2.21949 0 -0.584051 -0.470515
13 1 2.21949 2.21949 0 -0.694176 -0.283935
15 1 4.43897 2.21949 0 -0.699515 -0.270515
17 1 6.65845 2.21949 0 -0.0408555 0.748886
19 1 8.87793 2.21948 0 -0.732096 -0.162895
12 1 1.10974 3.32923 0 -0.645529 -0.381828
21 1 9.35539e-07 4.43897 0 0.524752 0.53585
23 1 2.21948 4.43897 0 -0.209078 -0.720268
14 1 3.32923 3.32922 0 -0.593713 0.458262
25 1 4.43897 4.43897 0 0.713392 0.231454
16 1 5.54871 3.32922 0 -0.698805 0.272344
18 1 7.76819 3.32922 0 0.604018 0.444592
27 1 6.65845 4.43897 0 0.659768 0.35666
29 1 8.87794 4.43897 0 -0.749971 0.00664313
20 1 9.98768 3.32923 0 -0.408209 0.629178
22 1 1.10974 5.54871 0 0.393159 0.638691
24 1 3.32923 5.54871 0 0.527634 0.533013
26 1 5.54871 5.54871 0 0.425142 -0.617863
28 1 7.76819 5.54871 0 0.665734 -0.345396
30 1 9.98768 5.54871 0 -0.521483 0.539032
31 1 6.80487e-07 6.65845 0 -0.748796 -0.0424846
32 1 1.10974 7.76819 0 0.73969 0.123933
33 1 2.21948 6.65845 0 -0.352257 -0.662129
34 1 3.32923 7.76819 0 -0.749829 0.0160119
35 1 4.43897 6.65845 0 0.620186 -0.421746
36 1 5.54871 7.76819 0 -0.368095 -0.653457
37 1 6.65845 6.65845 0 -0.706281 0.252323
38 1 7.7682 7.76819 0 -0.562217 0.496399
39 1 8.87794 6.65845 0 -0.555197 0.504238
40 1 9.98768 7.76819 0 0.675441 0.326005
41 1 2.26485e-06 8.87793 0 -0.194912 -0.72423
43 1 2.21948 8.87794 0 0.0265901 -0.749528
45 1 4.43897 8.87794 0 0.448626 0.601028
47 1 6.65845 8.87794 0 0.513498 -0.546644
49 1 8.87794 8.87794 0 -0.709939 -0.241839
42 1 1.10975 9.98768 0 0.738975 0.128126
44 1 3.32922 9.98768 0 -0.535459 0.525151
46 1 5.54871 9.98767 0 0.696772 -0.277505
48 1 7.76819 9.98768 0 0.506967 0.552707
50 1 9.98768 9.98767 0 -0.604149 0.444414
ITEM: TIMESTEP
10
ITEM: NUMBER OF ATOMS
50
ITEM: BOX BOUNDS pp pp pp
0.0000000000000000e+00 1.1097419040461880e+01
0.0000000000000000e+00 1.1097419040461880e+01
-1.1097419040461880e+00 1.1097419040461880e+00
ITEM: ATOMS id type x y z mux muy
1 1 2.70639e-06 3.39698e-06 0 0.0100558 0.749933
2 1 1.10974 1.10974 0 -0.450093 0.599931
3 1 2.21949 2.13641e-06 0 -0.650311 0.373625
4 1 3.32922 1.10974 0 0.661625 -0.353203
5 1 4.43897 -3.11108e-06 0 -0.597266 0.453622
6 1 5.54871 1.10974 0 -0.621766 0.419413
7 1 6.65846 -4.81938e-06 0 -0.0576173 -0.747784
8 1 7.7682 1.10974 0 0.15649 -0.733492
9 1 8.87793 3.59131e-06 0 0.613852 -0.430913
10 1 9.98767 1.10974 0 0.704166 -0.258166
11 1 3.116e-06 2.21949 0 -0.584093 -0.470463
13 1 2.21949 2.21949 0 -0.694167 -0.283959
15 1 4.43896 2.21949 0 -0.699531 -0.270474
17 1 6.65845 2.2195 0 -0.0408483 0.748887
19 1 8.87793 2.21948 0 -0.732089 -0.16293
12 1 1.10974 3.32923 0 -0.645535 -0.381818
21 1 3.7423e-06 4.43897 0 0.524742 0.535859
23 1 2.21947 4.43897 0 -0.209081 -0.720267
14 1 3.32924 3.32922 0 -0.593709 0.458268
25 1 4.43897 4.43897 0 0.713391 0.231459
16 1 5.54871 3.32921 0 -0.698812 0.272328
18 1 7.76819 3.32922 0 0.604026 0.444582
27 1 6.65844 4.43898 0 0.659777 0.356643
29 1 8.87794 4.43896 0 -0.749971 0.00664748
20 1 9.98768 3.32923 0 -0.408194 0.629188
22 1 1.10973 5.5487 0 0.39316 0.63869
24 1 3.32923 5.54872 0 0.527639 0.533008
26 1 5.54871 5.54871 0 0.425154 -0.617855
28 1 7.7682 5.54871 0 0.665754 -0.345357
30 1 9.98767 5.54872 0 -0.521503 0.539013
31 1 2.72199e-06 6.65844 0 -0.748795 -0.0424915
32 1 1.10973 7.7682 0 0.739692 0.123921
33 1 2.21949 6.65846 0 -0.352238 -0.662139
34 1 3.32923 7.76818 0 -0.749829 0.0160057
35 1 4.43898 6.65843 0 0.620191 -0.421739
36 1 5.54871 7.7682 0 -0.368139 -0.653432
37 1 6.65845 6.65845 0 -0.706286 0.252311
38 1 7.7682 7.76819 0 -0.562234 0.496379
39 1 8.87794 6.65845 0 -0.555183 0.504254
40 1 9.98767 7.76819 0 0.675433 0.326022
41 1 9.05952e-06 8.87793 0 -0.194918 -0.724228
43 1 2.21948 8.87795 0 0.0266093 -0.749528
45 1 4.43897 8.87794 0 0.448613 0.601038
47 1 6.65844 8.87795 0 0.513493 -0.546649
49 1 8.87794 8.87794 0 -0.70993 -0.241866
42 1 1.10975 9.98767 0 0.738977 0.128113
44 1 3.32922 9.98768 0 -0.53547 0.525139
46 1 5.54872 9.98766 0 0.696773 -0.277502
48 1 7.7682 9.98768 0 0.506959 0.552714
50 1 9.98768 9.98767 0 -0.60415 0.444412
ITEM: TIMESTEP
15
ITEM: NUMBER OF ATOMS
50
ITEM: BOX BOUNDS pp pp pp
0.0000000000000000e+00 1.1097419040461880e+01
0.0000000000000000e+00 1.1097419040461880e+01
-1.1097419040461880e+00 1.1097419040461880e+00
ITEM: ATOMS id type x y z mux muy
1 1 6.08936e-06 7.64364e-06 0 0.0101072 0.749932
2 1 1.10975 1.10974 0 -0.450069 0.599948
3 1 2.21949 4.80679e-06 0 -0.650294 0.373654
4 1 3.32921 1.10974 0 0.661619 -0.353213
5 1 4.43897 -7.00004e-06 0 -0.597285 0.453598
6 1 5.54871 1.10975 0 -0.621736 0.419457
7 1 6.65847 -1.08434e-05 0 -0.0576824 -0.747779
8 1 7.76822 1.10975 0 0.156433 -0.733504
9 1 8.87791 8.08092e-06 0 0.613889 -0.43086
10 1 9.98767 1.10973 0 0.704173 -0.258148
11 1 7.01082e-06 2.21951 0 -0.584162 -0.470377
13 1 2.21949 2.2195 0 -0.69415 -0.283999
15 1 4.43896 2.2195 0 -0.699558 -0.270405
17 1 6.65844 2.21951 0 -0.0408363 0.748887
19 1 8.87791 2.21948 0 -0.732076 -0.162987
12 1 1.10973 3.32923 0 -0.645545 -0.3818
21 1 8.42071e-06 4.43897 0 0.524726 0.535876
23 1 2.21945 4.43896 0 -0.209087 -0.720266
14 1 3.32925 3.32921 0 -0.593701 0.458279
25 1 4.43897 4.43897 0 0.713388 0.231467
16 1 5.54871 3.32919 0 -0.698822 0.272301
18 1 7.76819 3.32921 0 0.604039 0.444564
27 1 6.65843 4.439 0 0.659792 0.356616
29 1 8.87794 4.43896 0 -0.74997 0.00665474
20 1 9.98769 3.32923 0 -0.408169 0.629204
22 1 1.10971 5.54869 0 0.393162 0.638689
24 1 3.32923 5.54873 0 0.527648 0.532999
26 1 5.54871 5.54872 0 0.425174 -0.617841
28 1 7.7682 5.5487 0 0.665788 -0.345291
30 1 9.98767 5.54873 0 -0.521536 0.538981
31 1 6.12463e-06 6.65843 0 -0.748795 -0.042503
32 1 1.10973 7.7682 0 0.739695 0.123901
33 1 2.21949 6.65847 0 -0.352205 -0.662157
34 1 3.32923 7.76817 0 -0.749829 0.0159953
35 1 4.43898 6.65841 0 0.620198 -0.421727
36 1 5.5487 7.7682 0 -0.368214 -0.65339
37 1 6.65844 6.65846 0 -0.706293 0.25229
38 1 7.76821 7.76818 0 -0.562263 0.496347
39 1 8.87794 6.65844 0 -0.555159 0.50428
40 1 9.98767 7.76819 0 0.675419 0.32605
41 1 2.03844e-05 8.87792 0 -0.194929 -0.724226
43 1 2.21948 8.87796 0 0.0266412 -0.749527
45 1 4.43897 8.87795 0 0.448591 0.601054
47 1 6.65842 8.87797 0 0.513485 -0.546656
49 1 8.87794 8.87794 0 -0.709915 -0.241911
42 1 1.10977 9.98767 0 0.738981 0.12809
44 1 3.32921 9.98768 0 -0.535489 0.525121
46 1 5.54872 9.98763 0 0.696775 -0.277498
48 1 7.7682 9.98768 0 0.506945 0.552726
50 1 9.98768 9.98765 0 -0.604152 0.44441
ITEM: TIMESTEP
20
ITEM: NUMBER OF ATOMS
50
ITEM: BOX BOUNDS pp pp pp
0.0000000000000000e+00 1.1097419040461880e+01
0.0000000000000000e+00 1.1097419040461880e+01
-1.1097419040461880e+00 1.1097419040461880e+00
ITEM: ATOMS id type x y z mux muy
1 1 1.08255e-05 1.35898e-05 0 0.0101791 0.749931
2 1 1.10975 1.10974 0 -0.450037 0.599973
3 1 2.21949 8.54504e-06 0 -0.65027 0.373696
4 1 3.3292 1.10974 0 0.661612 -0.353228
5 1 4.43897 -1.24448e-05 0 -0.59731 0.453564
6 1 5.54871 1.10975 0 -0.621695 0.419518
7 1 6.65848 -1.92767e-05 0 -0.0577736 -0.747771
8 1 7.76824 1.10975 0 0.156352 -0.733522
9 1 8.8779 1.43673e-05 0 0.61394 -0.430787
10 1 9.98767 1.10971 0 0.704182 -0.258123
11 1 1.24632e-05 2.21953 0 -0.58426 -0.470255
13 1 2.2195 2.21951 0 -0.694127 -0.284055
15 1 4.43895 2.21952 0 -0.699595 -0.270308
17 1 6.65844 2.21953 0 -0.0408195 0.748888
19 1 8.8779 2.21948 0 -0.732058 -0.163066
12 1 1.10973 3.32923 0 -0.64556 -0.381775
21 1 1.49715e-05 4.43898 0 0.524703 0.535898
23 1 2.21942 4.43896 0 -0.209095 -0.720263
14 1 3.32927 3.3292 0 -0.59369 0.458293
25 1 4.43896 4.43897 0 0.713385 0.231478
16 1 5.54872 3.32917 0 -0.698837 0.272263
18 1 7.76819 3.32919 0 0.604057 0.444539
27 1 6.65842 4.43902 0 0.659813 0.356577
29 1 8.87794 4.43895 0 -0.74997 0.0066649
20 1 9.98771 3.32923 0 -0.408134 0.629227
22 1 1.10968 5.54867 0 0.393164 0.638687
24 1 3.32923 5.54875 0 0.52766 0.532987
26 1 5.54872 5.54873 0 0.425201 -0.617822
28 1 7.76821 5.5487 0 0.665836 -0.345199
30 1 9.98766 5.54875 0 -0.521582 0.538936
31 1 1.08886e-05 6.65841 0 -0.748794 -0.0425191
32 1 1.10971 7.7682 0 0.739699 0.123874
33 1 2.2195 6.65849 0 -0.35216 -0.662181
34 1 3.32923 7.76815 0 -0.74983 0.0159808
35 1 4.439 6.65838 0 0.62021 -0.421711
36 1 5.5487 7.76821 0 -0.368318 -0.653332
37 1 6.65844 6.65846 0 -0.706303 0.252262
38 1 7.76823 7.76817 0 -0.562304 0.496301
39 1 8.87794 6.65844 0 -0.555125 0.504317
40 1 9.98766 7.76819 0 0.6754 0.326089
41 1 3.624e-05 8.87791 0 -0.194944 -0.724222
43 1 2.21948 8.87799 0 0.026686 -0.749525
45 1 4.43897 8.87796 0 0.448561 0.601076
47 1 6.6584 8.878 0 0.513474 -0.546666
49 1 8.87794 8.87795 0 -0.709893 -0.241974
42 1 1.10979 9.98766 0 0.738986 0.128059
44 1 3.32921 9.98768 0 -0.535515 0.525094
46 1 5.54873 9.9876 0 0.696777 -0.277492
48 1 7.7682 9.98768 0 0.506926 0.552744
50 1 9.98768 9.98763 0 -0.604155 0.444406
ITEM: TIMESTEP
25
ITEM: NUMBER OF ATOMS
50
ITEM: BOX BOUNDS pp pp pp
0.0000000000000000e+00 1.1097419040461880e+01
0.0000000000000000e+00 1.1097419040461880e+01
-1.1097419040461880e+00 1.1097419040461880e+00
ITEM: ATOMS id type x y z mux muy
1 1 1.69146e-05 2.12361e-05 0 0.0102717 0.74993
2 1 1.10976 1.10974 0 -0.449995 0.600004
3 1 2.2195 1.33509e-05 0 -0.65024 0.373749
4 1 3.32919 1.10973 0 0.661602 -0.353246
5 1 4.43897 -1.94455e-05 0 -0.597344 0.45352
6 1 5.54871 1.10976 0 -0.621641 0.419598
7 1 6.6585 -3.01188e-05 0 -0.0578909 -0.747762
8 1 7.76826 1.10976 0 0.156249 -0.733544
9 1 8.87787 2.24512e-05 0 0.614006 -0.430694
10 1 9.98766 1.1097 0 0.704194 -0.258091
11 1 1.94729e-05 2.21955 0 -0.584386 -0.470099
13 1 2.21951 2.21952 0 -0.694098 -0.284127
15 1 4.43894 2.21954 0 -0.699644 -0.270183
17 1 6.65843 2.21955 0 -0.0407979 0.74889
19 1 8.87788 2.21947 0 -0.732035 -0.163169
12 1 1.10972 3.32923 0 -0.645579 -0.381743
21 1 2.33956e-05 4.43898 0 0.524674 0.535927
23 1 2.21939 4.43895 0 -0.209105 -0.72026
14 1 3.32929 3.32918 0 -0.593675 0.458312
25 1 4.43896 4.43898 0 0.71338 0.231492
16 1 5.54872 3.32914 0 -0.698856 0.272215
18 1 7.76819 3.32917 0 0.60408 0.444507
27 1 6.6584 4.43905 0 0.65984 0.356527
29 1 8.87795 4.43894 0 -0.74997 0.00667796
20 1 9.98772 3.32924 0 -0.408089 0.629256
22 1 1.10965 5.54865 0 0.393168 0.638685
24 1 3.32923 5.54878 0 0.527675 0.532972
26 1 5.54872 5.54874 0 0.425237 -0.617797
28 1 7.76822 5.54869 0 0.665897 -0.345081
30 1 9.98765 5.54877 0 -0.521642 0.538878
31 1 1.70142e-05 6.65839 0 -0.748793 -0.0425398
32 1 1.1097 7.76821 0 0.739705 0.123838
33 1 2.21951 6.6585 0 -0.352101 -0.662212
34 1 3.32923 7.76813 0 -0.74983 0.015962
35 1 4.43901 6.65834 0 0.620224 -0.42169
36 1 5.54869 7.76822 0 -0.368451 -0.653256
37 1 6.65843 6.65847 0 -0.706316 0.252225
38 1 7.76824 7.76815 0 -0.562356 0.496242
39 1 8.87794 6.65843 0 -0.555082 0.504365
40 1 9.98765 7.76818 0 0.675376 0.32614
41 1 5.66274e-05 8.8779 0 -0.194963 -0.724216
43 1 2.21948 8.87802 0 0.0267435 -0.749523
45 1 4.43898 8.87798 0 0.448523 0.601105
47 1 6.65836 8.87804 0 0.51346 -0.54668
49 1 8.87794 8.87796 0 -0.709865 -0.242056
42 1 1.10982 9.98765 0 0.738993 0.128019
44 1 3.32919 9.98769 0 -0.535548 0.52506
46 1 5.54875 9.98755 0 0.69678 -0.277485
48 1 7.76821 9.98768 0 0.506902 0.552766
50 1 9.98768 9.9876 0 -0.604158 0.444402
ITEM: TIMESTEP
30
ITEM: NUMBER OF ATOMS
50
ITEM: BOX BOUNDS pp pp pp
0.0000000000000000e+00 1.1097419040461880e+01
0.0000000000000000e+00 1.1097419040461880e+01
-1.1097419040461880e+00 1.1097419040461880e+00
ITEM: ATOMS id type x y z mux muy
1 1 2.43568e-05 3.05838e-05 0 0.0103848 0.749928
2 1 1.10977 1.10974 0 -0.449943 0.600042
3 1 2.21951 1.9224e-05 0 -0.650203 0.373814
4 1 3.32917 1.10973 0 0.661591 -0.353268
5 1 4.43897 -2.80025e-05 0 -0.597385 0.453466
6 1 5.54871 1.10977 0 -0.621576 0.419694
7 1 6.65853 -4.33692e-05 0 -0.0580342 -0.747751
8 1 7.76829 1.10977 0 0.156122 -0.733571
9 1 8.87785 3.23339e-05 0 0.614086 -0.430579
10 1 9.98765 1.10968 0 0.704208 -0.258052
11 1 2.80395e-05 2.21958 0 -0.584539 -0.469909
13 1 2.21953 2.21954 0 -0.694062 -0.284215
15 1 4.43893 2.21957 0 -0.699702 -0.270031
17 1 6.65842 2.21959 0 -0.0407714 0.748891
19 1 8.87785 2.21947 0 -0.732007 -0.163294
12 1 1.1097 3.32923 0 -0.645602 -0.381704
21 1 3.36944e-05 4.43899 0 0.524637 0.535962
23 1 2.21935 4.43895 0 -0.209118 -0.720257
14 1 3.32932 3.32917 0 -0.593658 0.458334
25 1 4.43896 4.43898 0 0.713375 0.231509
16 1 5.54873 3.3291 0 -0.698879 0.272155
18 1 7.76819 3.32915 0 0.604109 0.444469
27 1 6.65838 4.43909 0 0.659873 0.356466
29 1 8.87795 4.43893 0 -0.74997 0.00669392
20 1 9.98775 3.32925 0 -0.408033 0.629292
22 1 1.1096 5.54862 0 0.393172 0.638683
24 1 3.32923 5.54881 0 0.527694 0.532953
26 1 5.54873 5.54875 0 0.425281 -0.617767
28 1 7.76823 5.54868 0 0.665972 -0.344936
30 1 9.98764 5.54879 0 -0.521714 0.538808
31 1 2.45018e-05 6.65837 0 -0.748791 -0.042565
32 1 1.10968 7.76821 0 0.739713 0.123794
33 1 2.21953 6.65853 0 -0.352029 -0.66225
34 1 3.32923 7.7681 0 -0.749831 0.0159392
35 1 4.43904 6.65829 0 0.620241 -0.421665
36 1 5.54868 7.76823 0 -0.368615 -0.653164
37 1 6.65842 6.65848 0 -0.706332 0.252181
38 1 7.76827 7.76813 0 -0.56242 0.49617
39 1 8.87794 6.65842 0 -0.555029 0.504423
40 1 9.98763 7.76818 0 0.675346 0.326201
41 1 8.15475e-05 8.87789 0 -0.194986 -0.72421
43 1 2.21947 8.87805 0 0.0268139 -0.749521
45 1 4.43898 8.87799 0 0.448475 0.60114
47 1 6.65832 8.87808 0 0.513443 -0.546696
49 1 8.87794 8.87797 0 -0.709832 -0.242155
42 1 1.10985 9.98764 0 0.739002 0.12797
44 1 3.32918 9.98769 0 -0.535588 0.525019
46 1 5.54876 9.9875 0 0.696783 -0.277476
48 1 7.76821 9.98769 0 0.506873 0.552793
50 1 9.98768 9.98757 0 -0.604162 0.444396
ITEM: TIMESTEP
35
ITEM: NUMBER OF ATOMS
50
ITEM: BOX BOUNDS pp pp pp
0.0000000000000000e+00 1.1097419040461880e+01
0.0000000000000000e+00 1.1097419040461880e+01
-1.1097419040461880e+00 1.1097419040461880e+00
ITEM: ATOMS id type x y z mux muy
1 1 3.31519e-05 4.16339e-05 0 0.0105184 0.749926
2 1 1.10977 1.10974 0 -0.449883 0.600088
3 1 2.21951 2.61639e-05 0 -0.650159 0.37389
4 1 3.32915 1.10973 0 0.661577 -0.353294
5 1 4.43897 -3.8116e-05 0 -0.597433 0.453403
6 1 5.54871 1.10978 0 -0.621499 0.419809
7 1 6.65855 -5.90274e-05 0 -0.0582035 -0.747738
8 1 7.76833 1.10978 0 0.155972 -0.733603
9 1 8.87781 4.40167e-05 0 0.614181 -0.430443
10 1 9.98764 1.10966 0 0.704225 -0.258006
11 1 3.81623e-05 2.21961 0 -0.58472 -0.469683
13 1 2.21954 2.21956 0 -0.694019 -0.284319
15 1 4.43891 2.2196 0 -0.699772 -0.269851
17 1 6.6584 2.21962 0 -0.0407402 0.748893
19 1 8.87782 2.21946 0 -0.731974 -0.163442
12 1 1.10969 3.32924 0 -0.64563 -0.381657
21 1 4.58695e-05 4.439 0 0.524595 0.536004
23 1 2.2193 4.43894 0 -0.209133 -0.720252
14 1 3.32935 3.32914 0 -0.593637 0.458361
25 1 4.43896 4.43898 0 0.713368 0.231529
16 1 5.54874 3.32905 0 -0.698906 0.272085
18 1 7.76819 3.32912 0 0.604143 0.444423
27 1 6.65836 4.43913 0 0.659911 0.356394
29 1 8.87796 4.43891 0 -0.74997 0.00671278
20 1 9.98777 3.32925 0 -0.407968 0.629335
22 1 1.10956 5.54859 0 0.393176 0.63868
24 1 3.32923 5.54884 0 0.527717 0.532931
26 1 5.54874 5.54877 0 0.425332 -0.617732
28 1 7.76825 5.54867 0 0.666061 -0.344765
30 1 9.98763 5.54882 0 -0.5218 0.538725
31 1 3.33518e-05 6.65834 0 -0.748789 -0.0425949
32 1 1.10965 7.76822 0 0.739721 0.123743
33 1 2.21954 6.65855 0 -0.351945 -0.662295
34 1 3.32923 7.76806 0 -0.749831 0.0159121
35 1 4.43906 6.65823 0 0.620262 -0.421634
36 1 5.54867 7.76825 0 -0.368808 -0.653055
37 1 6.65841 6.65849 0 -0.706351 0.252128
38 1 7.76829 7.76811 0 -0.562495 0.496084
39 1 8.87794 6.65841 0 -0.554967 0.504492
40 1 9.98761 7.76818 0 0.675311 0.326274
41 1 0.000111002 8.87787 0 -0.195014 -0.724203
43 1 2.21947 8.87809 0 0.026897 -0.749518
45 1 4.43898 8.87801 0 0.44842 0.601182
47 1 6.65828 8.87814 0 0.513423 -0.546715
49 1 8.87795 8.87798 0 -0.709792 -0.242272
42 1 1.10989 9.98763 0 0.739012 0.127912
44 1 3.32917 9.9877 0 -0.535636 0.52497
46 1 5.54878 9.98744 0 0.696787 -0.277466
48 1 7.76822 9.98769 0 0.506838 0.552825
50 1 9.98768 9.98753 0 -0.604167 0.444389
ITEM: TIMESTEP
40
ITEM: NUMBER OF ATOMS
50
ITEM: BOX BOUNDS pp pp pp
0.0000000000000000e+00 1.1097419040461880e+01
0.0000000000000000e+00 1.1097419040461880e+01
-1.1097419040461880e+00 1.1097419040461880e+00
ITEM: ATOMS id type x y z mux muy
1 1 4.32999e-05 5.43881e-05 0 0.0106727 0.749924
2 1 1.10978 1.10974 0 -0.449813 0.60014
3 1 2.21952 3.41702e-05 0 -0.650108 0.373979
4 1 3.32912 1.10972 0 0.661561 -0.353324
5 1 4.43897 -4.97864e-05 0 -0.597488 0.45333
6 1 5.54872 1.10979 0 -0.621409 0.419941
7 1 6.65858 -7.70927e-05 0 -0.0583989 -0.747723
8 1 7.76837 1.10979 0 0.1558 -0.733639
9 1 8.87778 5.75013e-05 0 0.614291 -0.430287
10 1 9.98763 1.10963 0 0.704245 -0.257953
11 1 4.98409e-05 2.21965 0 -0.584929 -0.469423
13 1 2.21956 2.21959 0 -0.69397 -0.284439
15 1 4.4389 2.21963 0 -0.699852 -0.269643
17 1 6.65839 2.21967 0 -0.0407042 0.748895
19 1 8.87778 2.21945 0 -0.731936 -0.163613
12 1 1.10968 3.32924 0 -0.645661 -0.381604
21 1 5.99226e-05 4.439 0 0.524546 0.536052
23 1 2.21924 4.43893 0 -0.209151 -0.720247
14 1 3.32939 3.32912 0 -0.593614 0.458392
25 1 4.43895 4.43899 0 0.713361 0.231552
16 1 5.54874 3.329 0 -0.698937 0.272005
18 1 7.76819 3.32909 0 0.604182 0.44437
27 1 6.65833 4.43918 0 0.659956 0.356311
29 1 8.87796 4.43889 0 -0.74997 0.00673453
20 1 9.9878 3.32926 0 -0.407892 0.629384
22 1 1.1095 5.54855 0 0.393182 0.638677
24 1 3.32924 5.54889 0 0.527743 0.532905
26 1 5.54874 5.54879 0 0.425392 -0.617691
28 1 7.76826 5.54866 0 0.666163 -0.344568
30 1 9.98761 5.54885 0 -0.5219 0.538629
31 1 4.35647e-05 6.6583 0 -0.748788 -0.0426294
32 1 1.10963 7.76823 0 0.739731 0.123683
33 1 2.21956 6.65859 0 -0.351847 -0.662347
34 1 3.32923 7.76802 0 -0.749832 0.0158809
35 1 4.43909 6.65816 0 0.620285 -0.4216
36 1 5.54866 7.76826 0 -0.36903 -0.652929
37 1 6.6584 6.6585 0 -0.706373 0.252067
38 1 7.76832 7.76809 0 -0.562581 0.495986
39 1 8.87794 6.65839 0 -0.554895 0.504571
40 1 9.9876 7.76817 0 0.67527 0.326358
41 1 0.000144992 8.87785 0 -0.195046 -0.724194
43 1 2.21947 8.87814 0 0.0269929 -0.749514
45 1 4.43899 8.87804 0 0.448355 0.60123
47 1 6.65823 8.8782 0 0.5134 -0.546737
49 1 8.87795 8.87799 0 -0.709745 -0.242408
42 1 1.10994 9.98761 0 0.739023 0.127845
44 1 3.32915 9.98771 0 -0.535692 0.524914
46 1 5.5488 9.98736 0 0.696792 -0.277454
48 1 7.76823 9.98769 0 0.506797 0.552862
50 1 9.98769 9.98749 0 -0.604173 0.444382
ITEM: TIMESTEP
45
ITEM: NUMBER OF ATOMS
50
ITEM: BOX BOUNDS pp pp pp
0.0000000000000000e+00 1.1097419040461880e+01
0.0000000000000000e+00 1.1097419040461880e+01
-1.1097419040461880e+00 1.1097419040461880e+00
ITEM: ATOMS id type x y z mux muy
1 1 5.48005e-05 6.88479e-05 0 0.0108476 0.749922
2 1 1.10979 1.10974 0 -0.449733 0.6002
3 1 2.21953 4.32422e-05 0 -0.65005 0.374079
4 1 3.3291 1.10972 0 0.661542 -0.353358
5 1 4.43897 -6.30142e-05 0 -0.597551 0.453247
6 1 5.54872 1.1098 0 -0.621308 0.420091
7 1 6.65862 -9.75642e-05 0 -0.0586204 -0.747706
8 1 7.76842 1.1098 0 0.155604 -0.733681
9 1 8.87773 7.27895e-05 0 0.614415 -0.43011
10 1 9.98762 1.10961 0 0.704267 -0.257892
11 1 6.30744e-05 2.2197 0 -0.585166 -0.469128
13 1 2.21958 2.21961 0 -0.693914 -0.284575
15 1 4.43888 2.21967 0 -0.699943 -0.269407
17 1 6.65837 2.21971 0 -0.0406633 0.748897
19 1 8.87774 2.21944 0 -0.731893 -0.163807
12 1 1.10966 3.32924 0 -0.645697 -0.381543
21 1 7.5856e-05 4.43901 0 0.52449 0.536107
23 1 2.21917 4.43893 0 -0.20917 -0.720241
14 1 3.32943 3.32909 0 -0.593587 0.458427
25 1 4.43895 4.43899 0 0.713352 0.231579
16 1 5.54875 3.32894 0 -0.698973 0.271913
18 1 7.76819 3.32905 0 0.604226 0.444309
27 1 6.6583 4.43923 0 0.660007 0.356217
29 1 8.87797 4.43887 0 -0.74997 0.00675917
20 1 9.98783 3.32927 0 -0.407807 0.629439
22 1 1.10943 5.54851 0 0.393188 0.638673
24 1 3.32924 5.54893 0 0.527772 0.532876
26 1 5.54875 5.54881 0 0.425459 -0.617644
28 1 7.76828 5.54865 0 0.666279 -0.344344
30 1 9.9876 5.54889 0 -0.522012 0.53852
31 1 5.51412e-05 6.65826 0 -0.748785 -0.0426685
32 1 1.1096 7.76824 0 0.739743 0.123615
33 1 2.21958 6.65862 0 -0.351736 -0.662406
34 1 3.32924 7.76797 0 -0.749833 0.0158456
35 1 4.43912 6.65808 0 0.620312 -0.42156
36 1 5.54864 7.76828 0 -0.369283 -0.652787
37 1 6.65838 6.65851 0 -0.706397 0.251997
38 1 7.76836 7.76806 0 -0.56268 0.495875
39 1 8.87794 6.65838 0 -0.554813 0.50466
40 1 9.98757 7.76817 0 0.675224 0.326454
41 1 0.000183519 8.87783 0 -0.195082 -0.724184
43 1 2.21946 8.87819 0 0.0271016 -0.74951
45 1 4.43899 8.87807 0 0.448282 0.601285
47 1 6.65817 8.87827 0 0.513373 -0.546761
49 1 8.87796 8.87801 0 -0.709693 -0.242561
42 1 1.10999 9.9876 0 0.739037 0.127769
44 1 3.32913 9.98771 0 -0.535754 0.52485
46 1 5.54882 9.98728 0 0.696798 -0.27744
48 1 7.76823 9.9877 0 0.506751 0.552904
50 1 9.98769 9.98744 0 -0.604179 0.444373
ITEM: TIMESTEP
50
ITEM: NUMBER OF ATOMS
50
ITEM: BOX BOUNDS pp pp pp
0.0000000000000000e+00 1.1097419040461880e+01
0.0000000000000000e+00 1.1097419040461880e+01
-1.1097419040461880e+00 1.1097419040461880e+00
ITEM: ATOMS id type x y z mux muy
1 1 6.76537e-05 8.50154e-05 0 0.0110431 0.749919
2 1 1.10981 1.10974 0 -0.449645 0.600266
3 1 2.21954 5.33793e-05 0 -0.649986 0.374191
4 1 3.32907 1.10971 0 0.661522 -0.353396
5 1 4.43896 -7.77998e-05 0 -0.597622 0.453154
6 1 5.54872 1.10982 0 -0.621195 0.420258
7 1 6.65866 -0.000120441 0 -0.058868 -0.747686
8 1 7.76847 1.10981 0 0.155385 -0.733727
9 1 8.87769 8.98835e-05 0 0.614554 -0.429912
10 1 9.98761 1.10957 0 0.704291 -0.257825
11 1 7.78622e-05 2.21975 0 -0.58543 -0.468798
13 1 2.2196 2.21964 0 -0.693852 -0.284727
15 1 4.43885 2.21972 0 -0.700044 -0.269144
17 1 6.65835 2.21977 0 -0.0406177 0.748899
19 1 8.8777 2.21943 0 -0.731844 -0.164023
12 1 1.10964 3.32925 0 -0.645737 -0.381476
21 1 9.36721e-05 4.43903 0 0.524427 0.536168
23 1 2.2191 4.43892 0 -0.209192 -0.720235
14 1 3.32948 3.32906 0 -0.593557 0.458466
25 1 4.43895 4.439 0 0.713342 0.231609
16 1 5.54876 3.32887 0 -0.699013 0.271811
18 1 7.76819 3.32901 0 0.604275 0.444242
27 1 6.65826 4.4393 0 0.660064 0.356112
29 1 8.87798 4.43885 0 -0.749969 0.0067867
20 1 9.98787 3.32928 0 -0.407711 0.629501
22 1 1.10936 5.54846 0 0.393195 0.638669
24 1 3.32924 5.54899 0 0.527805 0.532843
26 1 5.54876 5.54883 0 0.425535 -0.617592
28 1 7.7683 5.54864 0 0.666408 -0.344094
30 1 9.98758 5.54894 0 -0.522137 0.538398
31 1 6.80819e-05 6.65822 0 -0.748783 -0.0427121
32 1 1.10956 7.76825 0 0.739755 0.12354
33 1 2.2196 6.65866 0 -0.351612 -0.662472
34 1 3.32924 7.76792 0 -0.749833 0.015806
35 1 4.43916 6.65799 0 0.620342 -0.421516
36 1 5.54863 7.7683 0 -0.369565 -0.652627
37 1 6.65837 6.65853 0 -0.706425 0.25192
38 1 7.76839 7.76803 0 -0.562789 0.49575
39 1 8.87794 6.65836 0 -0.554722 0.504761
40 1 9.98755 7.76816 0 0.675173 0.32656
41 1 0.000226587 8.87781 0 -0.195122 -0.724174
43 1 2.21946 8.87826 0 0.027223 -0.749506
45 1 4.439 8.8781 0 0.448201 0.601345
47 1 6.6581 8.87835 0 0.513344 -0.546789
49 1 8.87796 8.87803 0 -0.709634 -0.242733
42 1 1.11005 9.98758 0 0.739051 0.127684
44 1 3.3291 9.98772 0 -0.535824 0.524778
46 1 5.54885 9.98719 0 0.696804 -0.277425
48 1 7.76824 9.9877 0 0.5067 0.552951
50 1 9.98769 9.98739 0 -0.604186 0.444363
ITEM: TIMESTEP
55
ITEM: NUMBER OF ATOMS
50
ITEM: BOX BOUNDS pp pp pp
0.0000000000000000e+00 1.1097419040461880e+01
0.0000000000000000e+00 1.1097419040461880e+01
-1.1097419040461880e+00 1.1097419040461880e+00
ITEM: ATOMS id type x y z mux muy
1 1 8.18594e-05 0.000102893 0 0.0112592 0.749915
2 1 1.10982 1.10974 0 -0.449547 0.60034
3 1 2.21956 6.45807e-05 0 -0.649914 0.374315
4 1 3.32903 1.10971 0 0.6615 -0.353438
5 1 4.43896 -9.41438e-05 0 -0.597699 0.453051
6 1 5.54872 1.10983 0 -0.62107 0.420443
7 1 6.6587 -0.000145722 0 -0.0591416 -0.747665
8 1 7.76853 1.10983 0 0.155143 -0.733778
9 1 8.87763 0.000108786 0 0.614707 -0.429692
10 1 9.98759 1.10954 0 0.704319 -0.25775
11 1 9.42032e-05 2.2198 0 -0.585722 -0.468434
13 1 2.21963 2.21968 0 -0.693783 -0.284895
15 1 4.43883 2.21976 0 -0.700156 -0.268853
17 1 6.65833 2.21983 0 -0.0405672 0.748902
19 1 8.87765 2.21942 0 -0.731791 -0.164263
12 1 1.10962 3.32925 0 -0.645781 -0.381401
21 1 0.000113374 4.43904 0 0.524358 0.536235
23 1 2.21902 4.43891 0 -0.209217 -0.720228
14 1 3.32953 3.32902 0 -0.593523 0.458509
25 1 4.43894 4.43901 0 0.713332 0.231641
16 1 5.54877 3.3288 0 -0.699057 0.271697
18 1 7.76819 3.32896 0 0.60433 0.444168
27 1 6.65822 4.43937 0 0.660126 0.355996
29 1 8.87799 4.43883 0 -0.749969 0.00681712
20 1 9.98791 3.32929 0 -0.407606 0.629569
22 1 1.10928 5.54841 0 0.393202 0.638664
24 1 3.32925 5.54904 0 0.527841 0.532807
26 1 5.54877 5.54886 0 0.425618 -0.617535
28 1 7.76833 5.54862 0 0.66655 -0.343818
30 1 9.98756 5.54898 0 -0.522276 0.538263
31 1 8.23876e-05 6.65817 0 -0.74878 -0.0427604
32 1 1.10952 7.76826 0 0.739769 0.123457
33 1 2.21962 6.65871 0 -0.351475 -0.662544
34 1 3.32924 7.76787 0 -0.749834 0.0157623
35 1 4.4392 6.65789 0 0.620375 -0.421468
36 1 5.54861 7.76832 0 -0.369876 -0.65245
37 1 6.65835 6.65854 0 -0.706455 0.251835
38 1 7.76844 7.768 0 -0.562911 0.495612
39 1 8.87794 6.65834 0 -0.554621 0.504872
40 1 9.98752 7.76815 0 0.675116 0.326678
41 1 0.000274196 8.87778 0 -0.195167 -0.724162
43 1 2.21945 8.87832 0 0.0273573 -0.749501
45 1 4.43901 8.87813 0 0.44811 0.601413
47 1 6.65803 8.87844 0 0.513311 -0.54682
49 1 8.87797 8.87805 0 -0.709569 -0.242922
42 1 1.11012 9.98756 0 0.739067 0.127591
44 1 3.32908 9.98773 0 -0.535902 0.524699
46 1 5.54888 9.98708 0 0.696811 -0.277408
48 1 7.76825 9.98771 0 0.506644 0.553003
50 1 9.98769 9.98732 0 -0.604194 0.444353
ITEM: TIMESTEP
60
ITEM: NUMBER OF ATOMS
50
ITEM: BOX BOUNDS pp pp pp
0.0000000000000000e+00 1.1097419040461880e+01
0.0000000000000000e+00 1.1097419040461880e+01
-1.1097419040461880e+00 1.1097419040461880e+00
ITEM: ATOMS id type x y z mux muy
1 1 9.74173e-05 0.000122482 0 0.0114959 0.749912
2 1 1.10984 1.10974 0 -0.449439 0.60042
3 1 2.21957 7.68457e-05 0 -0.649836 0.37445
4 1 3.329 1.1097 0 0.661475 -0.353484
5 1 4.43896 -0.000112047 0 -0.597785 0.452939
6 1 5.54872 1.10985 0 -0.620933 0.420645
7 1 6.65875 -0.000173406 0 -0.0594413 -0.747641
8 1 7.76859 1.10984 0 0.154878 -0.733834
9 1 8.87758 0.000129499 0 0.614875 -0.429452
10 1 9.98758 1.1095 0 0.704349 -0.257668
11 1 0.000112097 2.21986 0 -0.586041 -0.468034
13 1 2.21966 2.21972 0 -0.693707 -0.285079
15 1 4.4388 2.21982 0 -0.700278 -0.268534
17 1 6.65831 2.21989 0 -0.040512 0.748905
19 1 8.87759 2.21941 0 -0.731732 -0.164525
12 1 1.10959 3.32926 0 -0.64583 -0.381319
21 1 0.000134964 4.43905 0 0.524283 0.536309
23 1 2.21893 4.43889 0 -0.209243 -0.72022
14 1 3.32959 3.32898 0 -0.593487 0.458556
25 1 4.43894 4.43901 0 0.71332 0.231677
16 1 5.54879 3.32872 0 -0.699105 0.271574
18 1 7.76819 3.32891 0 0.60439 0.444087
27 1 6.65818 4.43944 0 0.660195 0.355869
29 1 8.878 4.4388 0 -0.749969 0.00685041
20 1 9.98795 3.32931 0 -0.40749 0.629644
22 1 1.10919 5.54835 0 0.39321 0.638659
24 1 3.32925 5.54911 0 0.527881 0.532768
26 1 5.54879 5.54889 0 0.425709 -0.617472
28 1 7.76835 5.5486 0 0.666707 -0.343515
30 1 9.98754 5.54904 0 -0.522428 0.538116
31 1 9.80591e-05 6.65811 0 -0.748777 -0.0428132
32 1 1.10948 7.76827 0 0.739784 0.123365
33 1 2.21965 6.65875 0 -0.351326 -0.662624
34 1 3.32924 7.7678 0 -0.749835 0.0157144
35 1 4.43924 6.65779 0 0.620411 -0.421414