ITEM: TIMESTEP
0
ITEM: NUMBER OF ATOMS
200
ITEM: BOX BOUNDS pp pp pp
0.0000000000000000e+00 1.6903085094570333e+01
0.0000000000000000e+00 1.6903085094570333e+01
-8.4515425472851657e-01 8.4515425472851657e-01
ITEM: ATOMS id type x y z mux muy
1 1 0 0 0 0.0100147 0.749933
2 1 0.845154 0.845154 0 -0.519435 0.541006
3 1 1.69031 0 0 0.74878 -0.0427628
4 1 2.53546 0.845154 0 0.518719 -0.541692
5 1 3.38062 0 0 -0.671654 0.333739
6 1 4.22577 0.845154 0 0.310759 0.68259
7 1 5.07093 0 0 -0.684157 0.307293
8 1 5.91608 0.845154 0 0.487709 0.569772
9 1 6.76123 0 0 -0.545311 -0.514914
10 1 7.60639 0.845154 0 0.623635 0.416628
11 1 8.45154 0 0 0.272092 -0.698903
12 1 9.2967 0.845154 0 -0.0703884 -0.74669
13 1 10.1419 0 0 0.36538 -0.654979
14 1 10.987 0.845154 0 -0.196725 -0.72374
15 1 11.8322 0 0 -0.567833 -0.489964
16 1 12.6773 0.845154 0 0.653265 0.368436
17 1 13.5225 0 0 0.29009 0.691627
18 1 14.3676 0.845154 0 0.7008 0.267168
19 1 15.2128 0 0 0.721198 0.205848
20 1 16.0579 0.845154 0 0.625476 0.413859
21 1 0 1.69031 0 0.649493 -0.375046
22 1 0.845154 2.53546 0 0.435828 -0.610372
23 1 1.69031 1.69031 0 0.00921017 -0.749943
24 1 2.53546 2.53546 0 -0.291795 -0.690909
25 1 3.38062 1.69031 0 -0.496997 -0.561689
26 1 4.22577 2.53546 0 -0.246505 -0.708333
27 1 5.07093 1.69031 0 0.685751 0.303719
28 1 5.91608 2.53546 0 -0.749292 0.0325763
29 1 6.76123 1.69031 0 -0.749259 -0.0333388
30 1 7.60639 2.53546 0 -0.52441 -0.536185
31 1 8.45154 1.69031 0 -0.622849 0.417803
32 1 9.2967 2.53546 0 0.454009 0.596972
33 1 10.1419 1.69031 0 -0.272799 0.698628
34 1 10.987 2.53546 0 -0.639974 0.391067
35 1 11.8322 1.69031 0 0.512694 -0.547398
36 1 12.6773 2.53546 0 0.605841 0.442105
37 1 13.5225 1.69031 0 0.0615874 0.747467
38 1 14.3676 2.53546 0 0.395173 0.637446
39 1 15.2128 1.69031 0 0.700738 -0.267331
40 1 16.0579 2.53546 0 0.574342 0.482318
41 1 0 3.38062 0 0.383083 0.644785
43 1 1.69031 3.38062 0 0.705344 -0.254931
45 1 3.38062 3.38062 0 -0.388346 0.641629
47 1 5.07093 3.38062 0 0.741697 0.111288
49 1 6.76123 3.38062 0 0.426972 0.616599
51 1 8.45154 3.38062 0 0.210427 0.719875
53 1 10.1419 3.38062 0 0.733572 0.156116
55 1 11.8322 3.38062 0 -0.551046 -0.508771
57 1 13.5225 3.38062 0 0.0936881 -0.744125
59 1 15.2128 3.38062 0 -0.69087 0.291887
42 1 0.845154 4.22577 0 0.239873 0.710606
61 1 0 5.07093 0 -0.749172 -0.0352423
44 1 2.53546 4.22577 0 0.746883 -0.0683028
63 1 1.69031 5.07093 0 0.263215 0.702295
65 1 3.38062 5.07093 0 -0.00942645 -0.749941
46 1 4.22577 4.22577 0 -0.702112 0.263703
67 1 5.07093 5.07093 0 0.540609 0.519848
48 1 5.91608 4.22577 0 -0.692154 -0.288831
69 1 6.76123 5.07093 0 0.537183 -0.523388
50 1 7.60639 4.22577 0 -0.443528 -0.6048
52 1 9.2967 4.22577 0 -0.749241 -0.0337372
71 1 8.45154 5.07093 0 -0.563119 0.495375
54 1 10.987 4.22577 0 0.549741 0.510181
73 1 10.1419 5.07093 0 -0.576384 -0.479876
75 1 11.8322 5.07093 0 -0.714653 -0.227531
56 1 12.6773 4.22577 0 -0.745621 -0.0809301
77 1 13.5225 5.07093 0 -0.740792 -0.11716
58 1 14.3676 4.22577 0 0.549355 -0.510596
79 1 15.2128 5.07093 0 0.0343719 0.749212
60 1 16.0579 4.22577 0 -0.669805 0.337434
62 1 0.845154 5.91608 0 0.452702 -0.597964
81 1 0 6.76123 0 -0.0433373 -0.748747
64 1 2.53546 5.91608 0 0.611468 -0.434289
83 1 1.69031 6.76123 0 -0.0418239 0.748833
85 1 3.38062 6.76123 0 0.352024 -0.662253
66 1 4.22577 5.91608 0 -0.621246 -0.420183
87 1 5.07093 6.76123 0 0.310226 0.682832
68 1 5.91608 5.91608 0 -0.347211 -0.664789
89 1 6.76123 6.76123 0 -0.696147 -0.279068
70 1 7.60639 5.91608 0 -0.714553 -0.227847
72 1 9.2967 5.91608 0 0.477147 -0.578645
91 1 8.45154 6.76123 0 -0.708062 -0.247283
74 1 10.987 5.91608 0 0.576527 0.479705
93 1 10.1419 6.76123 0 -0.502873 -0.556434
95 1 11.8322 6.76123 0 -0.55441 0.505103
76 1 12.6773 5.91608 0 0.723117 -0.199
97 1 13.5225 6.76123 0 0.600516 0.449311
78 1 14.3676 5.91608 0 -0.60924 0.437409
99 1 15.2128 6.76123 0 -0.497146 0.561557
80 1 16.0579 5.91608 0 0.571392 0.48581
82 1 0.845154 7.60639 0 0.747283 0.0637822
84 1 2.53546 7.60639 0 0.508222 0.551553
86 1 4.22577 7.60639 0 0.719196 -0.212738
88 1 5.91608 7.60639 0 -0.699024 0.271782
90 1 7.60639 7.60639 0 0.158575 -0.733044
92 1 9.2967 7.60639 0 0.403888 0.631961
94 1 10.987 7.60639 0 0.656667 -0.362338
96 1 12.6773 7.60639 0 0.535162 -0.525454
98 1 14.3676 7.60639 0 -0.0827363 0.745422
100 1 16.0579 7.60639 0 0.555303 0.504122
101 1 0 8.45154 0 0.689308 -0.295557
102 1 0.845154 9.2967 0 -0.516787 0.543535
103 1 1.69031 8.45154 0 0.484167 -0.572785
104 1 2.53546 9.2967 0 0.354907 -0.660712
105 1 3.38062 8.45154 0 0.715234 0.225699
106 1 4.22577 9.2967 0 0.742348 -0.106859
107 1 5.07093 8.45154 0 0.745536 0.0817074
108 1 5.91608 9.2967 0 0.0247868 -0.74959
109 1 6.76123 8.45154 0 0.66008 -0.356082
110 1 7.60639 9.2967 0 -0.657291 0.361205
111 1 8.45154 8.45154 0 0.330423 -0.673291
112 1 9.2967 9.2967 0 0.748399 -0.0489731
113 1 10.1419 8.45154 0 -0.378756 0.647336
114 1 10.987 9.2967 0 0.720503 0.208268
115 1 11.8322 8.45154 0 0.55675 -0.502523
116 1 12.6773 9.2967 0 -0.563287 0.495184
117 1 13.5225 8.45154 0 -4.46243e-05 -0.75
118 1 14.3676 9.2967 0 -0.579589 0.476001
119 1 15.2128 8.45154 0 -0.422263 -0.619834
120 1 16.0579 9.2967 0 -0.0594824 -0.747638
121 1 0 10.1419 0 0.585641 -0.468534
122 1 0.845154 10.987 0 0.745527 -0.0817857
123 1 1.69031 10.1419 0 0.138954 -0.737016
124 1 2.53546 10.987 0 0.433159 -0.612269
125 1 3.38062 10.1419 0 0.686161 0.302792
126 1 4.22577 10.987 0 -0.418349 -0.622482
127 1 5.07093 10.1419 0 0.415797 0.624189
128 1 5.91608 10.987 0 -0.523123 -0.537441
129 1 6.76123 10.1419 0 0.25259 -0.706186
130 1 7.60639 10.987 0 0.620285 -0.4216
131 1 8.45154 10.1419 0 0.61459 0.429859
132 1 9.2967 10.987 0 -0.611726 0.433925
133 1 10.1419 10.1419 0 -0.662623 -0.351327
134 1 10.987 10.987 0 0.748459 0.0480606
135 1 11.8322 10.1419 0 0.542867 -0.51749
136 1 12.6773 10.987 0 0.325257 0.675802
137 1 13.5225 10.1419 0 0.436288 0.610043
138 1 14.3676 10.987 0 0.3224 0.677169
139 1 15.2128 10.1419 0 0.422175 -0.619894
140 1 16.0579 10.987 0 -0.278095 -0.696536
141 1 0 11.8322 0 -0.32133 0.677678
143 1 1.69031 11.8322 0 0.395206 0.637426
145 1 3.38062 11.8322 0 0.264554 -0.701791
147 1 5.07093 11.8322 0 0.735735 -0.14558
149 1 6.76123 11.8322 0 -0.676121 0.324592
151 1 8.45154 11.8322 0 -0.673738 -0.32951
153 1 10.1419 11.8322 0 0.534433 -0.526195
155 1 11.8322 11.8322 0 0.744929 0.0870698
157 1 13.5225 11.8322 0 -0.41084 -0.627464
159 1 15.2128 11.8322 0 0.603297 -0.44557
142 1 0.845154 12.6773 0 -0.192599 -0.724849
161 1 0 13.5225 0 0.601932 -0.447412
144 1 2.53546 12.6773 0 0.348003 0.664375
163 1 1.69031 13.5225 0 -0.721692 0.204109
165 1 3.38062 13.5225 0 -0.585951 0.468146
146 1 4.22577 12.6773 0 0.632079 0.403704
167 1 5.07093 13.5225 0 -0.532139 -0.528515
148 1 5.91608 12.6773 0 0.401429 0.633526
169 1 6.76123 13.5225 0 -0.189264 0.725727
150 1 7.60639 12.6773 0 0.677201 -0.322334
152 1 9.2967 12.6773 0 -0.500231 -0.558811
171 1 8.45154 13.5225 0 0.283629 -0.694301
154 1 10.987 12.6773 0 -0.718865 0.213854
173 1 10.1419 13.5225 0 0.30605 -0.684714
175 1 11.8322 13.5225 0 0.386278 -0.642876
156 1 12.6773 12.6773 0 0.640061 -0.390924
177 1 13.5225 13.5225 0 0.428797 0.615331
158 1 14.3676 12.6773 0 0.321471 -0.677611
179 1 15.2128 13.5225 0 0.608663 -0.438211
160 1 16.0579 12.6773 0 0.706992 -0.250324
162 1 0.845154 14.3676 0 -0.238449 -0.711085
181 1 0 15.2128 0 -0.71501 0.22641
164 1 2.53546 14.3676 0 -0.341259 0.667864
183 1 1.69031 15.2128 0 0.33218 -0.672426
185 1 3.38062 15.2128 0 -0.564516 -0.493783
166 1 4.22577 14.3676 0 0.524334 -0.536259
187 1 5.07093 15.2128 0 0.645261 -0.38228
168 1 5.91608 14.3676 0 -0.468477 -0.585687
189 1 6.76123 15.2128 0 -0.0887578 -0.74473
170 1 7.60639 14.3676 0 0.74982 0.0164099
172 1 9.2967 14.3676 0 0.280105 -0.695731
191 1 8.45154 15.2128 0 0.705801 0.253663
174 1 10.987 14.3676 0 0.749883 -0.0132325
193 1 10.1419 15.2128 0 -0.592074 -0.460379
195 1 11.8322 15.2128 0 -0.46546 -0.588088
176 1 12.6773 14.3676 0 0.385382 -0.643414
197 1 13.5225 15.2128 0 0.51368 0.546474
178 1 14.3676 14.3676 0 0.0309044 -0.749363
199 1 15.2128 15.2128 0 0.550988 -0.508834
180 1 16.0579 14.3676 0 0.746628 0.0710443
182 1 0.845154 16.0579 0 0.441704 -0.606133
184 1 2.53546 16.0579 0 -0.737454 0.136608
186 1 4.22577 16.0579 0 -0.708319 -0.246546
188 1 5.91608 16.0579 0 0.0914449 -0.744404
190 1 7.60639 16.0579 0 -0.696641 0.277833
192 1 9.2967 16.0579 0 -0.45553 -0.595813
194 1 10.987 16.0579 0 -0.602997 -0.445976
196 1 12.6773 16.0579 0 0.115197 -0.7411
198 1 14.3676 16.0579 0 -0.699569 -0.270377
200 1 16.0579 16.0579 0 0.593577 0.458439
ITEM: TIMESTEP
500
ITEM: NUMBER OF ATOMS
200
ITEM: BOX BOUNDS pp pp pp
0.0000000000000000e+00 1.6903085094570333e+01
0.0000000000000000e+00 1.6903085094570333e+01
-8.4515425472851657e-01 8.4515425472851657e-01
ITEM: ATOMS id type x y z mux muy
1 1 0.303026 16.2783 0 0.622827 -0.417836
2 1 0.993941 1.45456 0 -0.235942 -0.711921
3 1 1.47008 0.397877 0 0.742547 0.105474
4 1 2.59017 0.43312 0 0.441751 0.606099
5 1 3.05117 16.383 0 -0.651529 -0.371497
6 1 3.76428 0.454713 0 0.744783 0.088304
7 1 6.32511 0.644762 0 0.669615 0.33781
8 1 7.41653 0.668125 0 0.404818 0.631365
9 1 6.82672 16.6777 0 -0.575581 0.48084
10 1 8.44534 0.934257 0 0.684663 -0.306164
11 1 9.11072 16.8134 0 0.435761 -0.61042
12 1 9.49198 0.931178 0 0.560655 -0.498162
13 1 10.1699 16.932 0 0.615821 0.428094
14 1 10.7089 0.989601 0 0.206963 0.720879
15 1 11.2383 0.0165515 0 0.720582 0.207995
16 1 12.1185 1.14725 0 0.747786 -0.0575879
17 1 14.7048 1.01225 0 -0.680219 -0.315914
18 1 14.3717 2.07718 0 0.734653 -0.150945
19 1 16.3243 0.0965953 0 0.505585 -0.553971
20 1 16.9036 1.01332 0 -0.734185 -0.153207
21 1 0.178596 2.25527 0 -0.749998 0.00186669
22 1 1.375 2.54218 0 -0.721847 0.203562
23 1 2.15611 1.56969 0 -0.727724 -0.181433
24 1 2.59949 2.53206 0 -0.386487 -0.64275
25 1 3.32869 1.40138 0 0.30457 -0.685374
26 1 4.38847 1.26653 0 0.369435 0.6527
27 1 5.02071 0.359905 0 0.181927 0.727601
28 1 5.49928 1.33351 0 0.680362 0.315607
29 1 7.5836 1.85183 0 0.74891 -0.0404138
30 1 8.29767 2.62315 0 0.713201 0.232043
31 1 9.01805 1.86787 0 -0.304362 -0.685466
32 1 9.58648 2.79083 0 -0.703407 -0.260229
33 1 10.3333 1.99976 0 -0.0693081 0.746791
34 1 10.9602 3.05575 0 0.735666 -0.145931
35 1 11.3782 1.99964 0 0.718268 -0.215849
36 1 12.2996 2.32243 0 0.292449 0.690633
37 1 13.2407 1.7173 0 0.410718 0.627543
38 1 14.9492 2.90619 0 0.174872 0.729328
39 1 15.8128 1.18327 0 -0.532128 -0.528526
40 1 15.9299 2.31259 0 -0.35366 -0.661381
41 1 0.53041 3.35472 0 0.274681 0.69789
43 1 1.8285 3.70205 0 0.703248 -0.260657
45 1 4.01283 2.30827 0 -0.68937 0.295414
47 1 5.60693 2.42546 0 0.576864 -0.4793
49 1 6.44319 1.80625 0 0.730643 0.169294
51 1 8.83965 3.69517 0 0.696311 0.27866
53 1 10.0744 3.73443 0 0.7303 -0.170768
55 1 12.0507 3.38324 0 0.269676 0.699839
57 1 13.202 2.90411 0 0.113247 -0.741401
59 1 16.1949 3.46786 0 -0.440885 -0.606729
42 1 16.9082 4.4685 0 0.724177 0.195108
61 1 0.422474 5.40576 0 -0.744967 0.0867452
44 1 2.95197 3.64589 0 0.743105 0.101468
63 1 1.47526 5.49961 0 -0.743272 -0.100234
65 1 3.5051 4.5839 0 -0.570413 0.486959
46 1 4.63987 4.82411 0 -0.748981 0.0390739
67 1 4.93563 5.99752 0 0.749989 0.00414838
48 1 5.7065 4.66587 0 -0.686919 -0.301068
69 1 6.97977 4.73553 0 0.701398 0.265595
50 1 8.07033 4.44368 0 0.0285442 -0.749457
52 1 9.29962 4.627 0 0.348687 0.664016
71 1 8.57075 5.43515 0 -0.674551 0.327844
54 1 11.3275 4.14515 0 -0.491978 0.56609
73 1 10.44 4.69898 0 -0.749982 -0.00520253
75 1 12.0623 4.98582 0 0.106778 -0.74236
56 1 12.8141 4.01842 0 0.615477 -0.428589
77 1 13.3302 4.90494 0 0.395249 -0.6374
58 1 13.9978 4.0302 0 0.593515 0.458519
79 1 15.2783 4.06177 0 0.473112 0.58195
60 1 15.9623 4.8864 0 0.745043 -0.0860861
62 1 0.403652 6.44676 0 0.51114 0.54885
81 1 16.5186 7.09953 0 -0.115858 -0.740997
64 1 2.45257 6.02985 0 -0.0217175 -0.749686
83 1 1.4645 6.6212 0 0.484726 0.572312
85 1 3.42967 6.6618 0 0.572835 -0.484108
66 1 3.90034 5.6078 0 0.74765 0.0593308
87 1 5.75196 7.01741 0 -0.529399 0.531259
68 1 6.19572 5.66755 0 0.0240321 -0.749615
89 1 6.71693 6.52527 0 -0.605604 0.44243
70 1 7.5112 5.73154 0 0.109845 0.741912
72 1 9.68118 5.68404 0 -0.396933 0.636352
91 1 8.38313 6.49531 0 0.265708 0.701355
74 1 11.0349 5.51544 0 -0.319246 0.678662
93 1 10.4897 6.53421 0 -0.306243 -0.684628
95 1 11.7216 6.32516 0 -0.726721 0.185408
76 1 12.6722 5.80708 0 -0.300806 -0.687034
97 1 13.634 6.0697 0 -0.544272 -0.516012
78 1 14.4574 5.1991 0 0.694006 0.28435
99 1 15.1834 6.29895 0 -0.0531153 0.748117
80 1 16.281 5.97446 0 -0.67569 0.325488
82 1 0.375745 7.89201 0 0.266077 -0.701215
84 1 2.32161 7.26704 0 0.308209 -0.683745
86 1 3.27682 7.77301 0 0.209515 -0.720141
88 1 6.71122 7.95204 0 0.24825 0.707723
90 1 7.53973 7.16768 0 -0.458052 -0.593876
92 1 9.39032 6.85574 0 0.155325 0.73374
94 1 10.2553 8.2003 0 0.250579 -0.706902
96 1 12.629 6.94088 0 -0.0285252 -0.749457
98 1 14.1129 7.10495 0 0.0177967 -0.749789
100 1 15.3408 7.30773 0 0.0869393 0.744944
101 1 16.3207 8.34602 0 0.601507 -0.447984
102 1 0.367765 9.05032 0 -0.635331 -0.398565
103 1 1.3936 7.76743 0 0.586077 0.467989
104 1 1.66045 9.22135 0 -0.673403 -0.330195
105 1 2.56088 8.67098 0 0.521953 -0.538576
106 1 3.59931 9.14068 0 0.117171 0.740791
107 1 5.33144 8.17766 0 0.425692 0.617484
108 1 5.54344 9.78011 0 -0.614626 -0.429809
109 1 6.27281 9.06451 0 0.477933 0.577997
110 1 7.2004 10.0188 0 0.319328 0.678623
111 1 8.73863 7.80134 0 -0.316487 -0.679953
112 1 9.34462 10.0471 0 0.444295 -0.604236
113 1 9.26497 8.9285 0 0.325478 -0.675695
114 1 10.52 9.59362 0 0.550882 0.508948
115 1 12.8727 8.79641 0 -0.139139 -0.736981
116 1 13.8369 9.19914 0 -0.441086 0.606583
117 1 13.3735 7.8165 0 0.052168 -0.748183
118 1 14.4357 8.13277 0 -0.697755 0.275022
119 1 15.0683 9.16494 0 -0.641149 -0.389138
120 1 16.215 9.67512 0 -0.746565 -0.071696
121 1 16.3933 10.8663 0 -0.0855598 -0.745104
122 1 0.612466 11.2879 0 0.0492316 -0.748382
123 1 0.352336 10.1611 0 -0.282645 -0.694703
124 1 1.79079 10.4956 0 -0.651741 0.371124
125 1 2.61517 9.69531 0 -0.713625 -0.230736
126 1 4.53939 10.1447 0 0.559058 0.499954
127 1 4.65038 8.99021 0 -0.743527 -0.0983271
128 1 6.0536 12.0832 0 0.588112 -0.465429
129 1 6.21737 10.8181 0 -0.52817 -0.532481
130 1 7.26654 11.272 0 0.276109 0.697326
131 1 8.20298 10.5706 0 0.680002 0.316382
132 1 9.33097 11.2453 0 -0.481033 -0.575419
133 1 10.4459 10.769 0 0.151952 0.734446
134 1 11.393 11.6031 0 -0.749718 -0.0205567
135 1 11.6703 10.5263 0 -0.12267 0.7399
136 1 13.2684 11.4493 0 0.0358408 0.749143
137 1 13.848 10.5081 0 -0.336954 0.670046
138 1 14.4588 11.4648 0 0.126603 0.739237
139 1 15.3869 10.5818 0 -0.475686 0.579847
140 1 15.5571 11.6982 0 0.733165 -0.158018
141 1 16.5566 11.9143 0 0.599616 -0.450511
143 1 1.8254 11.5271 0 0.357037 0.659564
145 1 2.808 11.0516 0 -0.738439 0.131177
147 1 4.9672 12.3662 0 0.0800639 -0.745714
149 1 7.14064 12.3583 0 0.0571879 0.747817
151 1 8.23743 11.8977 0 -0.482021 0.574592
153 1 10.2812 11.8635 0 -0.749827 0.0160988
155 1 12.4635 12.1606 0 -0.749884 -0.0131667
157 1 13.7718 12.3973 0 0.505613 0.553945
159 1 14.8072 12.5913 0 0.71549 0.224885
142 1 1.01736 12.4306 0 -0.504912 -0.554584
161 1 0.10136 13.1858 0 0.710312 0.240742
144 1 2.71627 12.1665 0 0.183378 0.727236
163 1 2.11443 13.1385 0 -0.725549 0.189944
165 1 3.36967 13.1268 0 0.711042 0.238578
146 1 4.00238 11.4373 0 -0.544408 -0.515868
167 1 5.40133 13.3823 0 -0.668762 -0.339496
148 1 6.39031 13.098 0 -0.688266 0.297976
169 1 6.41555 14.1419 0 -0.0781553 0.745917
150 1 7.35019 13.4564 0 -0.74721 -0.0646309
152 1 9.35322 12.4178 0 -0.363107 -0.656242
171 1 8.52368 13.5398 0 -0.261225 -0.703037
154 1 10.8377 12.8232 0 0.453385 -0.597446
173 1 9.85116 13.8925 0 0.391611 -0.639641
175 1 11.9412 13.1408 0 -0.457577 0.594241
156 1 13.0151 13.0788 0 -0.627191 -0.411256
177 1 13.1797 14.3216 0 0.545118 -0.515118
158 1 14.0703 13.5296 0 -0.265889 0.701287
179 1 15.0854 13.7256 0 -0.539997 -0.520483
160 1 15.9078 12.8402 0 0.661933 0.352626
162 1 1.14376 13.6608 0 -0.36052 0.657666
181 1 0.346926 14.412 0 -0.583235 -0.471526
164 1 2.88685 14.1497 0 -0.185661 -0.726657
183 1 1.7548 14.6979 0 0.718588 -0.214783
185 1 3.03562 15.3073 0 0.554727 -0.504755
166 1 4.55376 14.1997 0 0.196199 0.723883
187 1 4.1746 15.1798 0 -0.170238 0.730424
168 1 5.44443 14.732 0 0.372653 -0.650869
189 1 6.31401 15.3643 0 0.740202 0.120832
170 1 7.34477 14.6185 0 0.617492 0.42568
172 1 8.9599 14.8138 0 -0.293917 -0.690009
191 1 7.86803 15.6322 0 0.168786 0.730761
174 1 10.865 13.9848 0 0.722571 0.200974
193 1 10.1121 14.9211 0 -0.748331 -0.0500093
195 1 11.437 15.0749 0 -0.212407 -0.719293
176 1 12.0874 14.1593 0 0.239147 0.710851
197 1 12.6355 15.2987 0 0.743383 -0.0994052
178 1 14.3594 14.617 0 0.0407174 0.748894
199 1 15.4666 15.1502 0 0.742807 0.10362
180 1 16.1874 13.9959 0 -0.749884 -0.0132167
182 1 1.03529 15.5007 0 0.722302 -0.201942
184 1 1.81071 16.2028 0 0.273314 0.698426
186 1 4.34987 16.3286 0 0.161164 0.73248
188 1 5.5421 16.2783 0 -0.196789 -0.723722
190 1 8.03089 16.7399 0 -0.40764 0.629547
192 1 9.40488 15.8255 0 -0.485895 -0.57132
194 1 10.7329 15.8897 0 0.616087 -0.427712
196 1 11.797 16.0236 0 -0.000414817 -0.75
198 1 15.0887 16.7056 0 -0.637281 -0.395441
200 1 16.4972 15.3519 0 0.421046 0.620661
ITEM: TIMESTEP
1000
ITEM: NUMBER OF ATOMS
200
ITEM: BOX BOUNDS pp pp pp
0.0000000000000000e+00 1.6903085094570333e+01
0.0000000000000000e+00 1.6903085094570333e+01
-8.4515425472851657e-01 8.4515425472851657e-01
ITEM: ATOMS id type x y z mux muy
1 1 1.32514 16.6547 0 0.642344 0.387162
2 1 1.29596 2.00022 0 -0.408679 0.628873
3 1 1.02196 0.804668 0 -0.590667 0.462182
4 1 2.26663 0.156547 0 0.323299 0.67674
5 1 3.37182 15.8962 0 0.666867 0.343203
6 1 3.35584 0.450897 0 -0.434783 -0.611117
7 1 5.72804 0.508266 0 0.722274 0.202039
8 1 7.19675 0.601755 0 0.269834 0.699778
9 1 6.53138 16.4912 0 0.503304 -0.556044
10 1 8.27497 0.641931 0 -0.0649422 -0.747183
11 1 9.05324 16.7225 0 0.633531 -0.40142
12 1 9.46551 0.999011 0 -0.740704 0.117719
13 1 10.2376 0.0244261 0 0.710916 -0.238952
14 1 10.5954 1.0405 0 -0.0891199 -0.744686
15 1 11.3277 0.22923 0 0.730061 -0.171787
16 1 11.6964 1.14582 0 -0.690143 0.293604
17 1 14.629 0.1032 0 -0.667159 -0.342636
18 1 14.9663 1.50058 0 -0.650836 -0.37271
19 1 0.177558 16.5788 0 0.694299 0.283635
20 1 0.0352856 1.59654 0 -0.725216 0.191212
21 1 0.424623 2.65296 0 0.667807 0.34137
22 1 2.23382 2.31892 0 -0.0896722 0.74462
23 1 2.05424 1.18383 0 -0.62811 0.409851
24 1 3.30887 2.82523 0 0.295606 -0.689287
25 1 3.04915 1.64531 0 -0.599268 -0.450975
26 1 4.09888 1.19658 0 -0.63493 -0.399204
27 1 4.47495 0.159484 0 0.538572 0.521958
28 1 5.17285 1.57204 0 -0.57267 -0.484303
29 1 7.5285 1.62514 0 -0.661766 0.35294
30 1 8.01881 2.67337 0 0.00961306 0.749938
31 1 8.62286 1.77235 0 -0.730335 -0.170619
32 1 9.06419 2.84438 0 -0.0650715 -0.747172
33 1 9.71441 2.04884 0 0.0785056 -0.74588
34 1 10.1158 3.0594 0 -0.264455 -0.701829
35 1 10.7469 2.16972 0 -0.672407 -0.332217
36 1 12.0669 2.30381 0 0.746736 0.0698913
37 1 13.9432 1.01737 0 -0.728165 -0.179656
38 1 15.2108 2.65627 0 0.689464 -0.295194
39 1 15.662 0.564522 0 -0.475439 -0.58005
40 1 15.9582 1.81627 0 -0.599591 -0.450544
41 1 1.43014 3.135 0 0.570873 0.486419
43 1 2.40295 3.52317 0 0.626492 0.41232
45 1 4.38363 2.40742 0 -0.0649461 -0.747183
47 1 6.85703 2.67965 0 0.0121202 0.749902
49 1 6.42768 1.54057 0 -0.623817 0.416356
51 1 8.45272 3.77171 0 0.712315 -0.23475
53 1 9.43222 4.14655 0 -0.103577 0.742813
55 1 11.2651 3.12028 0 0.018949 -0.749761
57 1 14.0125 2.39212 0 0.742967 -0.102472
59 1 16.3246 2.84326 0 0.409612 -0.628266
42 1 0.300505 3.70799 0 -0.567051 0.49087
61 1 0.54488 5.70797 0 0.347185 -0.664803
44 1 4.0252 3.84321 0 -0.217873 -0.717657
63 1 1.69918 5.69603 0 -0.43735 0.609283
65 1 3.82608 4.9146 0 0.631912 -0.403965
46 1 4.82751 5.3795 0 0.709709 0.242515
67 1 5.01046 6.40005 0 -0.0142952 0.749864
48 1 5.86362 5.03047 0 -0.716093 0.22296
69 1 7.05898 5.87296 0 0.206579 -0.720989
50 1 7.60245 4.52937 0 0.414242 -0.625223
52 1 8.74726 5.04767 0 -0.667582 0.34181
71 1 8.17628 5.93512 0 0.71866 0.21454
54 1 10.5666 4.06019 0 -0.627614 -0.410611
73 1 9.89515 5.10499 0 0.69174 0.289819
75 1 12.4832 4.60944 0 -0.389473 0.640945
56 1 12.5772 3.40971 0 -0.688426 0.297607
77 1 14.4375 5.07665 0 0.696957 -0.277039
58 1 14.6597 4.08294 0 -0.19123 -0.725211
79 1 15.9273 3.86587 0 0.211808 -0.71947
60 1 16.8947 4.71783 0 -0.428719 0.615386
62 1 0.578548 6.80762 0 -0.458236 -0.593734
81 1 16.1364 6.82906 0 -0.231218 0.713469
64 1 2.87784 5.7477 0 0.749693 0.0214505
83 1 2.10817 6.66413 0 0.414045 -0.625353
85 1 4.36661 7.25845 0 -0.68789 0.298843
66 1 3.91163 6.01479 0 0.652762 -0.369325
87 1 5.73113 7.58514 0 0.531366 0.529292
68 1 6.11691 6.46326 0 0.23337 0.712768
89 1 6.80817 7.47337 0 0.506663 0.552985
70 1 7.72176 6.8682 0 -0.677647 0.321394
72 1 9.32391 6.03132 0 0.651033 0.372366
91 1 8.76399 6.92408 0 -0.748927 -0.0401031
74 1 11.0499 5.04124 0 0.111006 -0.74174
93 1 10.4437 6.12025 0 0.698236 0.273799
95 1 11.6323 6.43475 0 -0.715929 0.223487
76 1 13.4187 5.1834 0 0.507309 0.552392
97 1 14.0961 6.15705 0 0.559732 -0.4992
78 1 15.6313 4.83906 0 0.470594 -0.583987
99 1 15.1869 5.94313 0 0.111155 0.741717
80 1 16.27 5.60936 0 -0.434938 0.611007
82 1 16.8816 7.95956 0 -0.20686 -0.720908
84 1 3.24063 6.90988 0 0.663905 -0.348898
86 1 3.70791 8.05864 0 0.283687 0.694278
88 1 6.36661 8.48395 0 0.342452 0.667253
90 1 8.13305 7.8685 0 0.74864 -0.0451396
92 1 10.0148 7.10668 0 -0.598925 -0.45143
94 1 10.1599 8.48155 0 0.278046 0.696556
96 1 12.8123 6.57973 0 -0.543572 -0.516749
98 1 13.8292 7.14992 0 -0.152769 -0.734276
100 1 14.9991 6.98927 0 -0.155086 0.73379
101 1 15.7248 7.83596 0 -0.688514 0.297403
102 1 16.2732 8.84244 0 0.724176 -0.195113
103 1 1.19149 7.80232 0 -0.477515 -0.578342
104 1 0.615783 9.06742 0 0.520324 -0.540151
105 1 2.60161 7.72134 0 0.39852 -0.635359
106 1 3.16781 8.91973 0 -0.178578 -0.72843
107 1 4.87278 8.36266 0 0.023995 -0.749616
108 1 5.6298 9.54388 0 -0.562712 -0.495838
109 1 6.7141 9.50153 0 -0.258677 0.703979
110 1 6.74967 10.5667 0 0.713535 -0.231013
111 1 9.21097 7.8911 0 0.704645 -0.256856
112 1 9.09007 10.3828 0 0.457796 0.594073
113 1 8.44617 9.0423 0 -0.525289 -0.535324
114 1 9.48965 9.39157 0 -0.738898 0.128566
115 1 13.0391 9.70427 0 0.43725 -0.609354
116 1 14.2021 9.40869 0 0.709801 -0.242244
117 1 13.5949 8.59363 0 -0.632363 -0.403258
118 1 14.6363 7.89927 0 -0.692772 0.287346
119 1 15.1303 8.88025 0 0.745887 0.078441
120 1 15.8127 9.87543 0 -0.749742 -0.0196577
121 1 16.1231 11.0297 0 -0.346764 -0.665022
122 1 0.450156 11.0818 0 0.6219 -0.419214
123 1 16.8758 9.94716 0 -0.387934 -0.641878
124 1 1.09106 10.0001 0 -0.672841 0.331339
125 1 1.7951 8.73657 0 -0.175781 -0.72911
126 1 3.41121 9.97231 0 -0.746806 0.0691466
127 1 4.47077 9.64782 0 -0.376451 -0.648679
128 1 5.17189 11.7144 0 -0.401014 -0.633789
129 1 5.48058 10.6697 0 0.633207 -0.401932
130 1 6.63163 11.7005 0 -0.517378 -0.542973
131 1 7.95966 10.3572 0 0.710462 -0.2403
132 1 8.60964 11.3191 0 -0.690075 0.293763
133 1 10.1579 10.6993 0 0.673014 0.330987
134 1 10.8257 11.8804 0 -0.299821 0.687464
135 1 11.8978 11.9815 0 0.0351176 -0.749177
136 1 13.3228 11.8194 0 -0.196242 0.723871
137 1 13.9532 10.4713 0 -0.602131 -0.447144
138 1 14.5143 11.823 0 -0.373174 0.65057
139 1 15.0028 10.6019 0 -0.702485 0.262707
140 1 15.5226 12.0497 0 0.553461 -0.506143
141 1 16.7017 11.9708 0 -0.0539854 -0.748055
143 1 1.72483 11.2113 0 0.614484 0.430011
145 1 2.17741 10.0881 0 -0.728342 -0.178935
147 1 4.08027 12.0828 0 0.0485322 -0.748428
149 1 6.85757 12.831 0 -0.463909 -0.589312
151 1 7.73312 11.9102 0 -0.50809 0.551675
153 1 9.63052 11.856 0 -0.727134 -0.183784
155 1 12.592 12.7694 0 -0.579349 0.476293
157 1 13.811 12.7589 0 -0.367838 0.653602
159 1 14.9338 13.0019 0 -0.225279 -0.715367
142 1 0.94888 11.9909 0 -0.749226 -0.0340547
161 1 0.381426 13.0015 0 -0.745709 -0.0801136
144 1 2.9642 11.3333 0 0.679814 0.316785
163 1 1.90272 12.4268 0 -0.0786064 0.745869
165 1 3.04123 12.6987 0 0.708203 -0.246877
146 1 4.24845 10.9819 0 0.0655409 -0.747131
167 1 4.84254 12.897 0 -0.744982 -0.0866137
148 1 5.89125 12.3895 0 -0.749736 0.0198942
169 1 6.1803 14.3129 0 0.740328 -0.120062
150 1 7.21559 14.1873 0 0.21435 -0.718717
152 1 8.74483 12.4469 0 0.526472 0.534161
171 1 7.91418 13.2266 0 -0.161274 -0.732455
154 1 10.3731 12.8686 0 -0.694079 0.284174
173 1 10.0004 13.9337 0 0.286966 0.692929
175 1 11.3948 12.9941 0 -0.287936 -0.692526
156 1 13.2344 13.6578 0 -0.264718 0.701729
177 1 13.5893 14.688 0 0.309652 0.683093
158 1 14.2452 13.9029 0 0.0182663 -0.749778
179 1 15.3492 14.0423 0 0.33569 -0.670681
160 1 15.99 13.1567 0 0.744191 0.0931687
162 1 1.40395 13.4453 0 -0.709161 0.244112
181 1 0.839366 14.5487 0 -0.681908 -0.312252
164 1 2.97949 13.8416 0 -0.507945 0.551808
183 1 1.95408 14.3806 0 -0.65971 0.356767
185 1 3.98657 14.8966 0 0.609864 0.436539
166 1 3.90892 13.2733 0 -0.248663 0.707578
187 1 5.04933 13.9599 0 0.717449 0.218558
168 1 5.39799 15.1303 0 0.741715 -0.11117
189 1 6.49208 15.3877 0 -0.576326 -0.479947
170 1 8.17696 14.7182 0 -0.605308 0.442835
172 1 9.24577 14.8156 0 -0.677935 0.320788
191 1 8.4712 15.7701 0 -0.179434 0.728219
174 1 11.0639 14.1166 0 -0.74879 -0.0425853
193 1 10.4907 14.955 0 -0.219413 0.717187
195 1 11.6154 14.9866 0 0.69663 -0.277861
176 1 12.3026 14.0763 0 -0.234682 -0.712337
197 1 12.614 15.2567 0 0.710777 -0.239366
178 1 14.6013 14.9225 0 0.364446 -0.655499
199 1 15.8121 15.1443 0 -0.6017 0.447724
180 1 16.5037 14.2859 0 -0.380987 0.646025
182 1 1.35946 15.5279 0 0.494808 0.563618
184 1 2.39383 15.6509 0 0.674658 -0.327623
186 1 4.5337 15.7949 0 0.67587 0.325116
188 1 5.44585 16.3003 0 0.459845 0.592489
190 1 7.63331 16.4523 0 -0.429887 0.614571
192 1 9.6692 15.9302 0 0.701093 -0.266401
194 1 10.8942 16.0656 0 0.713996 -0.229585
196 1 11.9474 16.1976 0 0.735328 -0.147624
198 1 15.8265 16.2378 0 0.700781 -0.26722
200 1 0.183494 15.4976 0 0.139143 0.73698
ITEM: TIMESTEP
1500
ITEM: NUMBER OF ATOMS
200
ITEM: BOX BOUNDS pp pp pp
0.0000000000000000e+00 1.6903085094570333e+01
0.0000000000000000e+00 1.6903085094570333e+01
-8.4515425472851657e-01 8.4515425472851657e-01
ITEM: ATOMS id type x y z mux muy
3 1 1.43001 1.09309 0 0.25399 0.705684
4 1 2.33706 0.498022 0 0.145588 0.735734
23 1 2.53584 1.53315 0 -0.597955 0.452714
6 1 3.42028 0.875434 0 0.747956 -0.0553357
26 1 4.41638 1.363 0 0.537278 -0.52329
27 1 4.29705 0.288037 0 0.315779 -0.680282
7 1 5.35199 0.657475 0 0.404101 -0.631824
8 1 7.2658 0.435298 0 -0.569932 0.487522
10 1 8.16517 0.877777 0 -0.226111 -0.715104
12 1 9.31812 0.89065 0 -0.516167 -0.544124
13 1 10.0893 16.7779 0 0.204012 0.72172
14 1 10.4913 0.870412 0 0.56686 0.49109
15 1 11.2643 0.014391 0 0.656381 0.362856
16 1 11.6057 1.04856 0 0.207983 0.720585
37 1 14.7043 1.03779 0 -0.722718 0.200445
17 1 14.839 16.8199 0 0.741706 -0.111232
39 1 16.0139 16.7567 0 -0.123517 -0.739759
2 1 1.73411 2.216 0 0.198549 0.723242
20 1 0.732054 1.95659 0 -0.408967 -0.628686
21 1 1.03021 3.00196 0 -0.698295 0.27365
22 1 2.55519 2.88676 0 0.370386 0.652161
25 1 3.48386 1.99647 0 -0.0474922 -0.748495
28 1 5.42825 1.88045 0 -0.701928 0.264192
45 1 4.42377 2.43892 0 -0.679361 -0.317755
47 1 6.42672 2.21554 0 -0.228477 0.714352
49 1 6.43464 1.12926 0 0.0369379 0.74909
29 1 7.43837 1.63913 0 -0.441137 0.606546
30 1 7.99462 2.95066 0 0.709978 0.241727
31 1 8.64146 1.89286 0 -0.477975 -0.577961
33 1 9.74526 1.90149 0 0.349008 -0.663848
35 1 11.0688 1.92284 0 -0.413735 0.625558
36 1 11.7446 2.96801 0 0.369383 -0.65273
57 1 12.1674 1.99735 0 0.0102073 -0.749931
18 1 15.6919 0.92315 0 -0.711828 0.236221
38 1 15.821 1.97995 0 0.684091 -0.307439
40 1 16.834 0.80273 0 -0.749854 -0.0148179
41 1 1.67463 3.87117 0 0.52203 -0.538502
42 1 0.179456 3.89565 0 -0.714303 0.22863
43 1 2.84398 3.93675 0 0.0819221 0.745512
24 1 3.59047 3.11982 0 0.0179998 -0.749784
44 1 3.99106 4.16562 0 0.510637 -0.549318
51 1 8.54274 4.19543 0 0.747883 0.0563129
32 1 9.21029 2.80768 0 -0.202133 -0.722248
53 1 9.70117 3.97649 0 0.742355 0.106813
34 1 10.4022 2.78001 0 -0.744634 0.0895591
55 1 11.9839 4.16276 0 -0.318367 -0.679075
54 1 10.8836 3.96289 0 0.209127 -0.720254
56 1 13.0828 4.27416 0 -0.749258 -0.0333519
58 1 14.8663 3.43212 0 -0.467703 -0.586305
59 1 16.7867 2.58128 0 0.53233 0.528322
79 1 15.9711 3.2369 0 -0.241388 -0.710093
65 1 3.76624 5.38459 0 -0.16278 -0.732122
46 1 4.87178 4.81709 0 -0.157631 0.733248
48 1 6.57162 4.91346 0 0.699303 0.271064
50 1 7.68993 5.06156 0 0.575882 -0.480479
52 1 8.8203 5.38631 0 0.627291 0.411104
73 1 10.0221 5.40514 0 0.521795 0.53873
74 1 11.2128 5.12484 0 0.024973 -0.749584
75 1 12.4009 5.13954 0 -0.692317 -0.28844
76 1 13.5685 5.27674 0 0.271956 -0.698956
77 1 14.2635 4.37048 0 0.658383 -0.359209
60 1 16.6971 4.89403 0 0.60044 0.449412
78 1 15.4096 4.35999 0 0.498322 -0.560513
61 1 0.985671 6.11169 0 0.373021 -0.650657
62 1 16.6129 6.75552 0 0.509707 -0.55018
63 1 0.946561 4.70322 0 0.310711 -0.682612
83 1 1.93889 6.69353 0 0.101376 0.743117
64 1 2.85299 5.84041 0 0.0858374 0.745072
66 1 4.07256 6.5132 0 -0.748358 0.0495966
84 1 3.02426 6.85203 0 0.0196261 0.749743
67 1 5.17912 6.67358 0 -0.309971 -0.682948
68 1 6.22392 6.69119 0 -0.459132 0.593041
69 1 7.15279 6.24565 0 0.184634 0.726918
71 1 8.34063 6.66174 0 -0.640365 0.390426
70 1 7.4976 7.35071 0 0.00507848 0.749983
72 1 9.3136 6.32703 0 -0.533517 0.527124
91 1 8.49752 7.75361 0 0.609632 -0.436863
93 1 10.7442 6.15368 0 0.745446 0.0825236
95 1 11.8245 6.11628 0 0.070925 -0.746639
96 1 13.0236 6.70637 0 0.520868 0.539626
97 1 13.9551 6.24607 0 0.37316 -0.650578
99 1 14.7759 5.32612 0 0.527573 -0.533072
100 1 14.1973 7.28207 0 -0.0543342 -0.748029
81 1 15.5636 6.91712 0 -0.084381 0.745238
80 1 15.7713 5.89 0 -0.11076 0.741776
82 1 0.0311693 7.72066 0 -0.297482 -0.68848
103 1 1.24193 7.42111 0 -0.35334 -0.661552
105 1 2.32496 7.66951 0 0.166226 0.731347
86 1 3.49267 8.01251 0 0.749569 0.0254225
85 1 4.52692 7.65817 0 0.730621 -0.169391